VARIABLES="X","Y","Density","Velocity_x","Velocity_y","Pressure"
ZONE T="Yeethaw"
Nodes=1056, Elements=1024, ZONETYPE=FEQuadrilateral
DATAPACKING=BLOCK
VARLOCATION=([3,4,5,6]=CELLCENTERED) 
-0.0153952
0.01481
0.062099
0.124489
0.19975
0.285385
0.378675
0.4767
0.576338
0.67425
0.76688
0.850498
0.921316
0.975662
1.01019
1.02213
1.01019
0.975662
0.921316
0.850498
0.76688
0.67425
0.576338
0.4767
0.378675
0.285385
0.19975
0.124489
0.062099
0.01481
-0.0153952
-0.0591159
-0.0258754
0.026093
0.0946675
0.177364
0.271324
0.373397
0.480204
0.588178
0.693577
0.79252
0.881052
0.955278
1.01157
1.04684
1.05888
1.04684
1.01157
0.955278
0.881052
0.79252
0.693577
0.588178
0.480204
0.373397
0.271324
0.177364
0.0946675
0.026093
-0.0258754
-0.0591159
-0.123088
-0.0857193
-0.0272733
0.0498866
0.142932
0.248558
0.363093
0.4826
0.602955
0.719899
0.829095
0.926226
1.00715
1.06812
1.10609
1.11899
1.10609
1.06812
1.00715
0.926226
0.829095
0.719899
0.602955
0.4826
0.363093
0.248558
0.142932
0.0498866
-0.0272733
-0.0857193
-0.123088
-0.209938
-0.167209
-0.100235
-0.0117152
0.0950704
0.216253
0.347516
0.484231
0.621571
0.754602
0.878374
0.988043
1.07905
1.14736
1.18977
1.20416
1.18977
1.14736
1.07905
0.988043
0.878374
0.754602
0.621571
0.484231
0.347516
0.216253
0.0950704
-0.0117152
-0.100235
-0.167209
-0.209938
-0.323149
-0.273615
-0.195718
-0.0925921
0.0319073
0.173205
0.32618
0.485337
0.644966
0.799266
0.942478
1.06904
1.17379
1.25224
1.30085
1.31733
1.30085
1.25224
1.17379
1.06904
0.942478
0.799266
0.644966
0.485337
0.32618
0.173205
0.0319073
-0.0925921
-0.195718
-0.273615
-0.323149
-0.467199
-0.409136
-0.317482
-0.195911
-0.0490022
0.117791
0.298345
0.486087
0.674193
0.855768
1.02401
1.17243
1.29505
1.38673
1.44346
1.46268
1.44346
1.38673
1.29505
1.17243
1.02401
0.855768
0.674193
0.486087
0.298345
0.117791
-0.0490022
-0.195911
-0.317482
-0.409136
-0.467199
-0.64773
-0.579073
-0.470278
-0.32569
-0.150782
0.0479014
0.262998
0.486594
0.710482
0.926391
1.12621
1.30225
1.4475
1.55596
1.62303
1.64573
1.62303
1.55596
1.4475
1.30225
1.12621
0.926391
0.710482
0.486594
0.262998
0.0479014
-0.150782
-0.32569
-0.470278
-0.579073
-0.64773
-0.87178
-0.790042
-0.660045
-0.48696
-0.277362
-0.0391396
0.218816
0.486936
0.755299
1.01393
1.25307
1.46355
1.63702
1.76646
1.84642
1.87349
1.84642
1.76646
1.63702
1.46355
1.25307
1.01393
0.755299
0.486936
0.218816
-0.0391396
-0.277362
-0.48696
-0.660045
-0.790042
-0.87178
-1.14805
-1.05023
-0.89414
-0.685963
-0.43363
-0.146678
0.164123
0.487167
0.810421
1.1218
1.40953
1.66256
1.87096
2.02632
2.12226
2.15471
2.12226
2.02632
1.87096
1.66256
1.40953
1.1218
0.810421
0.487167
0.164123
-0.146678
-0.43363
-0.685963
-0.89414
-1.05023
-1.14805
-1.48726
-1.36972
-1.18163
-0.930401
-0.625624
-0.278857
0.0968256
0.487323
0.878007
1.2542
1.60165
1.90701
2.15833
2.3456
2.46117
2.50025
2.46117
2.3456
2.15833
1.90701
1.60165
1.2542
0.878007
0.487323
0.0968256
-0.278857
-0.625624
-0.930401
-1.18163
-1.36972
-1.48726
-1.90254
-1.76089
-1.53364
-1.22973
-0.860765
-0.440779
0.0143376
0.487429
0.960689
1.41627
1.83687
2.20634
2.51027
2.73661
2.87625
2.92346
2.87625
2.73661
2.51027
2.20634
1.83687
1.41627
0.960689
0.487429
0.0143376
-0.440779
-0.860765
-1.22973
-1.53364
-1.76089
-1.90254
-2.40997
-2.23886
-1.9638
-1.59552
-1.14814
-0.638698
-0.0865211
0.4875
1.06168
1.61429
2.12431
2.57214
2.94037
3.21449
3.38355
3.4407
3.38355
3.21449
2.94037
2.57214
2.12431
1.61429
1.06168
0.4875
-0.0865211
-0.638698
-1.14814
-1.59552
-1.9638
-2.23886
-2.40997
-3.02918
-2.82215
-2.48873
-2.04194
-1.49887
-0.880264
-0.209644
0.487548
1.18489
1.85592
2.47507
3.01854
3.46527
3.79771
4.00268
4.07195
4.00268
3.79771
3.46527
3.01854
2.47507
1.85592
1.18489
0.487548
-0.209644
-0.880264
-1.49887
-2.04194
-2.48873
-2.82215
-3.02918
-3.78414
-3.53331
-3.12876
-2.58623
-1.92651
-1.17482
-0.359787
0.48758
1.33509
2.15052
2.90273
3.56283
4.10527
4.50882
4.75759
4.84164
4.75759
4.50882
4.10527
3.56283
2.90273
2.15052
1.33509
0.48758
-0.359787
-1.17482
-1.92651
-2.58623
-3.12876
-3.53331
-3.78414
-4.70403
-4.39985
-3.90863
-3.24946
-2.4476
-1.53374
-0.542755
0.487602
1.5181
2.50947
3.42383
4.22605
4.88511
5.37533
5.67745
5.77952
5.67745
5.37533
4.88511
4.22605
3.42383
2.50947
1.5181
0.487602
-0.542755
-1.53374
-2.4476
-3.24946
-3.90863
-4.39985
-4.70403
-5.82446
-5.45528
-4.85851
-4.05727
-3.0823
-1.97093
-0.765622
0.487616
1.74099
2.94668
4.05853
5.03386
5.83497
6.43074
6.79786
6.92188
6.79786
6.43074
5.83497
5.03386
4.05853
2.94668
1.74099
0.487616
-0.765622
-1.97093
-3.0823
-4.05727
-4.85851
-5.45528
-5.82446
-7.18874
-6.74044
-6.01514
-5.04092
-3.85515
-2.50328
-1.03701
0.487626
2.0124
3.47903
4.83138
6.01749
6.99158
7.71588
8.16215
8.31289
8.16215
7.71588
6.99158
6.01749
4.83138
3.47903
2.0124
0.487626
-1.03701
-2.50328
-3.85515
-5.04092
-6.01514
-6.74044
-7.18874
-8.84966
-8.30502
-7.42325
-6.23843
-4.79604
-3.15138
-1.3674
0.487633
2.3428
4.12714
5.77227
7.21499
8.39968
9.28045
9.82308
10.0064
9.82308
9.28045
8.39968
7.21499
5.77227
4.12714
2.3428
0.487633
-1.3674
-3.15138
-4.79604
-6.23843
-7.42325
-8.30502
-8.84966
-10.8714
-10.2095
-9.13731
-7.69614
-5.94137
-3.9403
-1.76959
0.487638
2.745
4.91606
6.91759
8.67268
10.1137
11.185
11.8449
12.0678
11.8449
11.185
10.1137
8.67268
6.91759
4.91606
2.745
0.487638
-1.76959
-3.9403
-5.94137
-7.69614
-9.13731
-10.2095
-10.8714
-13.3323
-12.5277
-11.2236
-9.47042
-7.33543
-4.90055
-2.25912
0.487641
3.23453
5.8763
8.31163
10.4469
12.2
13.5031
14.3058
14.5769
14.3058
13.5031
12.2
10.4469
8.31163
5.8763
3.23453
0.487641
-2.25912
-4.90055
-7.33543
-9.47042
-11.2236
-12.5277
-13.3323
-16.3274
-15.3491
-13.7628
-11.6299
-9.03214
-6.06927
-2.85493
0.487643
3.83034
7.04502
10.0083
12.6064
14.7392
16.3245
17.3009
17.6307
17.3009
16.3245
14.7392
12.6064
10.0083
7.04502
3.83034
0.487643
-2.85493
-6.06927
-9.03214
-11.6299
-13.7628
-15.3491
-16.3274
-19.9726
-18.7828
-16.8532
-14.2581
-11.0971
-7.49166
-3.58007
0.487644
4.55548
8.4674
12.0733
15.2345
17.8295
19.7582
20.9462
21.3473
20.9462
19.7582
17.8295
15.2345
12.0733
8.4674
4.55548
0.487644
-3.58007
-7.49166
-11.0971
-14.2581
-16.8532
-18.7828
-19.9726
-24.4089
-22.9618
-20.6143
-17.4566
-13.6102
-9.22275
-4.46257
0.487645
5.43798
10.1985
14.5864
18.4331
21.5906
23.9372
25.3825
25.8705
25.3825
23.9372
21.5906
18.4331
14.5864
10.1985
5.43798
0.487645
-4.46257
-9.22275
-13.6102
-17.4566
-20.6143
-22.9618
-24.4089
-29.8078
-28.0476
-25.1915
-21.3493
-16.6687
-11.3295
-5.53657
0.487646
6.51197
12.3052
17.6448
22.3257
26.1677
29.023
30.7815
31.3753
30.7815
29.023
26.1677
22.3257
17.6448
12.3052
6.51197
0.487646
-5.53657
-11.3295
-16.6687
-21.3493
-25.1915
-28.0476
-29.8078
-36.3782
-34.2369
-30.7618
-26.0866
-20.3908
-13.8933
-6.84362
0.487646
7.81901
14.869
21.3669
27.0629
31.738
35.2123
37.352
38.0745
37.352
35.2123
31.738
27.0629
21.3669
14.869
7.81901
0.487646
-6.84362
-13.8933
-20.3908
-26.0866
-30.7618
-34.2369
-36.3782
-44.3742
-41.7692
-37.5408
-31.8517
-24.9205
-17.0135
-8.43425
0.487646
9.40964
17.9891
25.8965
32.8279
38.5169
42.7446
45.3481
46.2273
45.3481
42.7446
38.5169
32.8279
25.8965
17.9891
9.40964
0.487646
-8.43425
-17.0135
-24.9205
-31.8517
-37.5408
-41.7692
-44.3742
-54.1051
-50.9357
-45.7906
-38.8677
-30.433
-20.8106
-10.37
0.487647
11.3454
21.7862
31.4089
39.8438
46.7666
51.911
55.0791
56.1489
55.0791
51.911
46.7666
39.8438
31.4089
21.7862
11.3454
0.487647
-10.37
-20.8106
-30.433
-38.8677
-45.7906
-50.9357
-54.1051
-65.9472
-62.0909
-55.8302
-47.4059
-37.1415
-25.4315
-12.7257
0.487647
13.7011
26.4071
38.1173
48.3819
56.8062
63.0663
66.9214
68.2231
66.9214
63.0663
56.8062
48.3819
38.1173
26.4071
13.7011
0.487647
-12.7257
-25.4315
-37.1415
-47.4059
-55.8302
-62.0909
-65.9472
-80.3585
-75.6664
-68.0481
-57.7965
-45.3054
-31.055
-15.5926
0.487647
16.5679
32.0305
46.2812
58.7724
69.0239
76.6418
81.3329
82.9169
81.3329
76.6418
69.0239
58.7724
46.2812
32.0305
16.5679
0.487647
-15.5926
-31.055
-45.3054
-57.7965
-68.0481
-75.6664
-80.3585
-97.8965
-92.1872
-82.9167
-70.4414
-55.2406
-37.8985
-19.0814
0.487647
20.0567
38.8739
56.2162
71.4171
83.8924
93.1625
98.8711
100.799
98.8711
93.1625
83.8924
71.4171
56.2162
38.8739
20.0567
0.487647
-19.0814
-37.8985
-55.2406
-70.4414
-82.9167
-92.1872
-97.8965
-119.239
-112.292
-101.011
-85.8297
-67.3312
-46.2267
-23.3271
0.487647
24.3024
47.2021
68.3067
86.8052
101.987
113.268
120.214
122.56
120.214
113.268
101.987
86.8052
68.3067
47.2021
24.3024
0.487647
-23.3271
-46.2267
-67.3312
-85.8297
-101.011
-112.292
-119.239
0.00993468
0.0381841
0.0824283
0.140734
0.211071
0.291254
0.378939
0.471604
0.566501
0.66061
0.750605
0.832879
0.903637
0.959052
0.995417
1.00893
0.995417
0.959052
0.903637
0.832879
0.750605
0.66061
0.566501
0.471604
0.378939
0.291254
0.211071
0.140734
0.0824283
0.0381841
0.00993468
1.93586e-17
-0.0260422
-0.0708705
-0.136303
-0.225011
-0.340554
-0.487507
-0.671632
-0.900109
-1.18182
-1.52769
-1.95111
-2.46849
-3.09983
-3.86957
-4.80748
-5.94984
-7.34084
-9.03428
-11.0956
-13.6047
-16.6584
-20.375
-24.8981
-30.4028
-37.1018
-45.2544
-55.1758
-67.2497
-81.9432
-99.8245
-121.585
-148.067
-145.213
-136.759
-123.031
-104.557
-82.045
-56.3618
-28.494
0.487647
29.4693
57.3371
83.0203
105.532
124.007
137.734
146.188
149.043
146.188
137.734
124.007
105.532
83.0203
57.3371
29.4693
0.487647
-28.494
-56.3618
-82.045
-104.557
-123.031
-136.759
-145.213
0.0354074
0.0676589
0.0957948
0.11902
0.136632
0.148185
0.153548
0.152874
0.146532
0.13503
0.118977
0.0990855
0.0762139
0.0513848
0.0257012
0
-0.0257012
-0.0513848
-0.0762139
-0.0990855
-0.118977
-0.13503
-0.146532
-0.152874
-0.153548
-0.148185
-0.136632
-0.11902
-0.0957948
-0.0676589
-0.0354074
0.0551121
0.106389
0.152126
0.190923
0.221571
0.243195
0.255296
0.257741
0.250696
0.234574
0.210004
0.177847
0.139242
0.0956175
0.048632
0
-0.048632
-0.0956175
-0.139242
-0.177847
-0.210004
-0.234574
-0.250696
-0.257741
-0.255296
-0.243195
-0.221571
-0.190923
-0.152126
-0.106389
-0.0551121
0.0769741
0.149375
0.214679
0.27076
0.315792
0.348381
0.367615
0.373056
0.364694
0.3429
0.308411
0.262352
0.206281
0.142205
0.0725414
0
-0.0725414
-0.142205
-0.206281
-0.262352
-0.308411
-0.3429
-0.364694
-0.373056
-0.367615
-0.348381
-0.315792
-0.27076
-0.214679
-0.149375
-0.0769741
0.101857
0.198274
0.285806
0.361484
0.422751
0.467604
0.494656
0.503144
0.492892
0.464279
0.418229
0.356239
0.280415
0.193486
0.0987608
0
-0.0987608
-0.193486
-0.280415
-0.356239
-0.418229
-0.464279
-0.492892
-0.503144
-0.494656
-0.467604
-0.422751
-0.361484
-0.285806
-0.198274
-0.101857
0.130712
0.254946
0.368194
0.466502
0.546455
0.605337
0.641215
0.652962
0.640242
0.603485
0.543878
0.463396
0.364821
0.251745
0.128501
0
-0.128501
-0.251745
-0.364821
-0.463396
-0.543878
-0.603485
-0.640242
-0.652962
-0.641215
-0.605337
-0.546455
-0.466502
-0.368194
-0.254946
-0.130712
0.164638
0.321549
0.464973
0.5898
0.691602
0.766821
0.812887
0.828265
0.812454
0.765969
0.690344
0.588139
0.462957
0.319411
0.163019
0
-0.163019
-0.319411
-0.462957
-0.588139
-0.690344
-0.765969
-0.812454
-0.828265
-0.812887
-0.766821
-0.691602
-0.5898
-0.464973
-0.321549
-0.164638
0.204932
0.400628
0.579842
0.736093
0.863744
0.958242
1.01627
1.03582
1.0162
0.958069
0.863378
0.735407
0.57874
0.399204
0.20371
0
-0.20371
-0.399204
-0.57874
-0.735407
-0.863378
-0.958069
-1.0162
-1.03582
-1.01627
-0.958242
-0.863744
-0.736093
-0.579842
-0.400628
-0.204932
0.253137
0.495216
0.71721
0.910997
1.0695
1.18697
1.2592
1.28364
1.25938
1.18725
1.06973
0.910968
0.716724
0.494272
0.252183
0
-0.252183
-0.494272
-0.716724
-0.910968
-1.06973
-1.18725
-1.25938
-1.28364
-1.2592
-1.18697
-1.0695
-0.910997
-0.71721
-0.495216
-0.253137
0.311108
0.608951
0.882365
1.12125
1.31679
1.46182
1.55107
1.5813
1.55142
1.46242
1.31743
1.12166
0.882293
0.608332
0.310334
0
-0.310334
-0.608332
-0.882293
-1.12166
-1.31743
-1.46242
-1.55142
-1.5813
-1.55107
-1.46182
-1.31679
-1.12125
-0.882365
-0.608951
-0.311108
0.381078
0.74622
1.08167
1.37496
1.61517
1.79341
1.90314
1.94034
1.9036
1.79422
1.61608
1.37567
1.08188
0.745819
0.380427
0
-0.380427
-0.745819
-1.08188
-1.37567
-1.61608
-1.79422
-1.9036
-1.94034
-1.90314
-1.79341
-1.61517
-1.37496
-1.08167
-0.74622
-0.381078
0.465749
0.91232
1.32284
1.68193
1.97616
2.19456
2.32904
2.37462
2.32958
2.1955
1.97725
1.68284
1.32323
0.912066
0.46518
0
-0.46518
-0.912066
-1.32323
-1.68284
-1.97725
-2.1955
-2.32958
-2.37462
-2.32904
-2.19456
-1.97616
-1.68193
-1.32284
-0.91232
-0.465749
0.56839
1.11367
1.61517
2.05401
2.41371
2.68077
2.84523
2.90094
2.84581
2.68181
2.41493
2.05506
1.61568
1.11351
0.567878
0
-0.567878
-1.11351
-1.61568
-2.05506
-2.41493
-2.68181
-2.84581
-2.90094
-2.84523
-2.68077
-2.41371
-2.05401
-1.61517
-1.11367
-0.56839
0.692968
1.35805
1.96996
2.5056
2.94475
3.27085
3.47167
3.53968
3.47229
3.27194
2.94604
2.50673
1.97057
1.35796
0.692495
0
-0.692495
-1.35796
-1.97057
-2.50673
-2.94604
-3.27194
-3.47229
-3.53968
-3.47167
-3.27085
-2.94475
-2.5056
-1.96996
-1.35805
-0.692968
0.8443
1.65491
2.40095
3.05416
3.5898
3.98761
4.2326
4.31552
4.23323
3.98874
3.59114
3.05534
2.4016
1.65486
0.843854
0
-0.843854
-1.65486
-2.4016
-3.05534
-3.59114
-3.98874
-4.23323
-4.31552
-4.2326
-3.98761
-3.5898
-3.05416
-2.40095
-1.65491
-0.8443
1.02824
2.01572
2.92479
3.72089
4.37381
4.85877
5.15743
5.25848
5.15808
4.85992
4.37518
3.72211
2.92548
2.01571
1.02781
0
-1.02781
-2.01571
-2.92548
-3.72211
-4.37518
-4.85992
-5.15808
-5.25848
-5.15743
-4.85877
-4.37381
-3.72089
-2.92479
-2.01572
-1.02824
1.25189
2.45445
3.56173
4.53159
5.32711
5.91803
6.28195
6.40503
6.2826
5.9192
5.32849
4.53283
3.56244
2.45446
1.25148
0
-1.25148
-2.45446
-3.56244
-4.53283
-5.32849
-5.9192
-6.2826
-6.40503
-6.28195
-5.91803
-5.32711
-4.53159
-3.56173
-2.45445
-1.25189
1.52392
2.98805
4.33643
5.51761
6.48656
7.20636
7.64963
7.79952
7.65029
7.20752
6.48795
5.51885
4.33715
2.98808
1.52352
0
-1.52352
-2.98808
-4.33715
-5.51885
-6.48795
-7.20752
-7.65029
-7.79952
-7.64963
-7.20636
-6.48656
-5.51761
-4.33643
-2.98805
-1.52392
1.85483
3.63718
5.27883
6.71708
7.897
8.77358
9.31339
9.49588
9.31404
8.77474
7.89839
6.71832
5.27955
3.63721
1.85444
0
-1.85444
-3.63721
-5.27955
-6.71832
-7.89839
-8.77474
-9.31404
-9.49588
-9.31339
-8.77358
-7.897
-6.71708
-5.27883
-3.63718
-1.85483
2.25743
4.42692
6.42538
8.17639
9.61299
10.6803
11.3376
11.5597
11.3382
10.6815
9.61437
8.17762
6.4261
4.42696
2.25705
0
-2.25705
-4.42696
-6.4261
-8.17762
-9.61437
-10.6815
-11.3382
-11.5597
-11.3376
-10.6803
-9.61299
-8.17639
-6.42538
-4.42692
-2.25743
2.74728
5.38783
7.82044
9.95199
11.7009
13.0003
13.8005
14.0709
13.8011
13.0014
11.7023
9.9532
7.82115
5.38787
2.74691
0
-2.74691
-5.38787
-7.82115
-9.9532
-11.7023
-13.0014
-13.8011
-14.0709
-13.8005
-13.0003
-11.7009
-9.95199
-7.82044
-5.38783
-2.74728
3.34335
6.55708
9.51795
12.1125
14.2415
15.8233
16.7973
17.1264
16.7979
15.8244
14.2428
12.1137
9.51865
6.55712
3.34298
0
-3.34298
-6.55712
-9.51865
-12.1137
-14.2428
-15.8244
-16.7979
-17.1264
-16.7973
-15.8233
-14.2415
-12.1125
-9.51795
-6.55708
-3.34335
4.06866
7.97987
11.5836
14.7416
17.333
19.2584
20.4441
20.8446
20.4447
19.2595
17.3343
14.7428
11.5843
7.97992
4.06831
0
-4.06831
-7.97992
-11.5843
-14.7428
-17.3343
-19.2595
-20.4447
-20.8446
-20.4441
-19.2584
-17.333
-14.7416
-11.5836
-7.97987
-4.06866
4.9513
9.71126
14.0972
17.9409
21.095
23.4386
24.8817
25.3692
24.8823
23.4396
21.0963
17.942
14.0979
9.7113
4.95096
0
-4.95096
-9.7113
-14.0979
-17.942
-21.0963
-23.4396
-24.8823
-25.3692
-24.8817
-23.4386
-21.095
-17.9409
-14.0972
-9.71126
-4.9513
6.02538
11.8182
17.156
21.8342
25.673
28.5254
30.2819
30.8752
30.2825
28.5264
25.6742
21.8352
17.1567
11.8182
6.02505
0
-6.02505
-11.8182
-17.1567
-21.8352
-25.6742
-28.5264
-30.2825
-30.8752
-30.2819
-28.5254
-25.673
-21.8342
-17.156
-11.8182
-6.02538
7.33245
14.3822
20.8784
26.5719
31.2441
34.7158
36.8536
37.5756
36.8541
34.7167
31.2453
26.5729
20.879
14.3822
7.33214
0
-7.33214
-14.3822
-20.879
-26.5729
-31.2453
-34.7167
-36.8541
-37.5756
-36.8536
-34.7158
-31.2441
-26.5719
-20.8784
-14.3822
-7.33245
8.92306
17.5023
25.4083
32.3375
38.0238
42.249
44.8508
45.7295
44.8513
42.2498
38.0248
32.3384
25.4089
17.5024
8.92278
0
-8.92278
-17.5024
-25.4089
-32.3384
-38.0248
-42.2498
-44.8513
-45.7295
-44.8508
-42.249
-38.0238
-32.3375
-25.4083
-17.5023
-8.92306
10.8587
21.2994
30.9209
39.3538
46.2742
51.4164
54.583
55.6523
54.5834
51.4172
46.2751
39.3546
30.9214
21.2994
10.8585
0
-10.8585
-21.2994
-30.9214
-39.3546
-46.2751
-51.4172
-54.5834
-55.6523
-54.583
-51.4164
-46.2742
-39.3538
-30.9209
-21.2994
-10.8587
13.2144
25.9202
37.6294
47.8922
56.3145
62.5727
66.4264
67.7278
66.4268
62.5733
56.3153
47.893
37.6298
25.9202
13.2141
0
-13.2141
-25.9202
-37.6298
-47.893
-56.3153
-62.5733
-66.4268
-67.7278
-66.4264
-62.5727
-56.3145
-47.8922
-37.6294
-25.9202
-13.2144
16.081
31.5435
45.7933
58.2831
68.5329
76.1492
80.8393
82.423
80.8396
76.1498
68.5336
58.2837
45.7937
31.5435
16.0808
0
-16.0808
-31.5435
-45.7937
-58.2837
-68.5336
-76.1498
-80.8396
-82.423
-80.8393
-76.1492
-68.5329
-58.2831
-45.7933
-31.5435
-16.081
19.5696
38.3867
55.7283
70.9282
83.4022
92.6712
98.379
100.306
98.3792
92.6716
83.4027
70.9286
55.7286
38.3867
19.5695
0
-19.5695
-38.3867
-55.7286
-70.9286
-83.4027
-92.6716
-98.3792
-100.306
-98.379
-92.6712
-83.4022
-70.9282
-55.7283
-38.3867
-19.5696
23.815
46.7146
67.8188
86.3166
101.497
112.778
119.724
122.069
119.724
112.778
101.498
86.3168
67.8189
46.7146
23.8149
0
-23.8149
-46.7146
-67.8189
-86.3168
-101.498
-112.778
-119.724
-122.069
-119.724
-112.778
-101.497
-86.3166
-67.8188
-46.7146
-23.815
0.016984
0.031625
0.0435724
0.0524622
0.0579696
0.0600005
0.0587451
0.0546415
0.0482897
0.040361
0.03154
0.0225172
0.0140234
0.00686384
0.00190122
0
-0.00190122
-0.00686384
-0.0140234
-0.0225172
-0.03154
-0.040361
-0.0482897
-0.0546415
-0.0587451
-0.0600005
-0.0579696
-0.0524622
-0.0435724
-0.031625
-0.016984
0
0
0
0
0
0
0
0
0
0
0
0
0
0
0
0
0
0
0
0
0
0
0
0
0
0
0
0
0
0
0
0
0
-28.9815
-56.8492
-82.5322
-105.044
-123.518
-137.246
-145.7
-148.554
-145.7
-137.246
-123.518
-105.044
-82.5322
-56.8492
-28.9815
0
28.9815
56.8492
82.5322
105.044
123.518
137.246
145.7
148.554
145.7
137.246
123.518
105.044
82.5322
56.8492
28.9815
1.16097
1.11152
1.03811
1.01605
0.998791
0.988401
0.989107
0.972015
0.988877
0.968931
0.982541
0.97325
0.978252
0.976143
0.980796
1.00939
1.00939
0.980795
0.976143
0.978252
0.973251
0.982539
0.968934
0.988872
0.972017
0.989104
0.988401
0.99879
1.01605
1.03811
1.11153
1.16095
1.04165
1.04625
1.02345
1.01108
0.999009
0.997811
0.979261
1.00983
0.958833
1.00318
0.968816
0.988167
0.97835
0.984996
0.988477
1.01146
1.01146
0.988477
0.984995
0.978351
0.988165
0.968822
1.00318
0.958843
1.00982
0.979265
0.997808
0.99901
1.01108
1.02345
1.04624
1.04168
1.00856
1.01946
1.01546
1.00944
1.00389
0.995416
1.00554
0.965587
1.02163
0.962218
0.999464
0.977556
0.988606
0.985413
0.99098
1.00417
1.00417
0.99098
0.985414
0.988606
0.97756
0.99946
0.962229
1.02162
0.965598
1.00553
0.995418
1.00388
1.00944
1.01545
1.01948
1.00852
0.999108
1.00767
1.0088
1.00697
1.00277
1.00288
0.988292
1.01889
0.96128
1.01264
0.975697
0.99404
0.985356
0.99014
0.990388
1.0017
1.0017
0.990389
0.99014
0.985358
0.994039
0.975703
1.01263
0.961293
1.01888
0.988296
1.00288
1.00277
1.00697
1.00881
1.00765
0.999157
0.997562
1.00293
1.00497
1.00444
1.00326
0.999246
1.00553
0.97794
1.02113
0.974504
1.00144
0.986041
0.992604
0.989583
0.991838
0.998727
0.998728
0.991838
0.989584
0.992604
0.986044
1.00144
0.974512
1.02112
0.977949
1.00553
0.999247
1.00326
1.00445
1.00496
1.00295
0.997502
0.997928
1.00123
1.00283
1.00311
1.002
1.00222
0.995188
1.01258
0.977066
1.00897
0.986713
0.996687
0.991062
0.992864
0.991505
0.99767
0.997669
0.991506
0.992864
0.991063
0.996686
0.986717
1.00897
0.977076
1.01257
0.99519
1.00222
1.002
1.0031
1.00284
1.0012
0.997996
0.998715
1.00058
1.00181
1.00206
1.00195
1.0003
1.00332
0.989357
1.01263
0.987192
1.00123
0.99282
0.995569
0.992996
0.992971
0.996285
0.996286
0.992971
0.992997
0.995569
0.992821
1.00123
0.987197
1.01263
0.989362
1.00331
1.0003
1.00195
1.00206
1.0018
1.00062
0.998641
0.999206
1.00045
1.00122
1.00157
1.00129
1.00147
0.998372
1.0067
0.989076
1.00496
0.993964
0.998462
0.995189
0.995282
0.993245
0.995987
0.995986
0.993245
0.995282
0.99519
0.998462
0.993966
1.00496
0.989081
1.0067
0.998373
1.00147
1.00129
1.00157
1.00123
1.00041
0.999284
0.999694
1.00038
1.00096
1.00117
1.00124
1.00057
1.00192
0.995489
1.0065
0.994436
1.00091
0.996791
0.997704
0.99576
0.994573
0.995483
0.995483
0.994573
0.995761
0.997704
0.996792
1.00091
0.994439
1.00649
0.995492
1.00192
1.00057
1.00124
1.00118
1.00095
1.00042
0.999614
0.999895
1.00044
1.00079
1.00101
1.00094
1.00105
0.999676
1.00348
0.995303
1.00265
0.997573
0.999497
0.997724
0.997236
0.995151
0.995601
0.995601
0.995151
0.997236
0.997725
0.999496
0.997574
1.00265
0.995307
1.00347
0.999677
1.00105
1.00094
1.001
1.0008
1.00041
0.999974
1.00017
1.00044
1.00073
1.00085
1.00092
1.00064
1.00125
0.998275
1.00339
0.997803
1.00073
0.998781
0.999027
0.997715
0.996227
0.995607
0.995608
0.996226
0.997716
0.999027
0.998782
1.00073
0.997805
1.00338
0.998278
1.00125
1.00064
1.00092
1.00086
1.00071
1.00048
1.00009
1.00023
1.00052
1.00067
1.0008
1.00078
1.00085
1.00019
1.00203
0.998095
1.0016
0.999192
1.00005
0.999113
0.998604
0.996837
0.995943
0.995943
0.996837
0.998604
0.999113
1.00005
0.999193
1.0016
0.998098
1.00203
1.0002
1.00085
1.00078
1.00079
1.00068
1.00048
1.00031
1.00041
1.00051
1.00067
1.00073
1.00078
1.00064
1.00098
0.999428
1.00207
0.999235
1.00069
0.999711
0.999774
0.998952
0.997636
0.996208
0.996209
0.997636
0.998952
0.999774
0.999712
1.00069
0.999236
1.00207
0.99943
1.00097
1.00064
1.00078
1.00073
1.00065
1.00054
1.00034
1.00041
1.00057
1.00064
1.00071
1.00071
1.00077
1.00038
1.00149
0.999211
1.00122
0.999881
1.00035
0.999826
0.999467
0.998139
0.996629
0.996628
0.998139
0.999467
0.999826
1.00035
0.999882
1.00122
0.999213
1.00149
1.00038
1.00077
1.00071
1.00071
1.00065
1.00054
1.00048
1.00053
1.00056
1.00065
1.00068
1.00072
1.00063
1.00089
0.99982
1.00165
0.999778
1.00074
1.00013
1.00018
0.999676
0.998697
0.996989
0.996989
0.998697
0.999676
1.00018
1.00013
1.00074
0.999779
1.00165
0.999822
1.00089
1.00063
1.00072
1.00068
1.00064
1.00059
1.00047
1.00051
1.00061
1.00063
1.00068
1.00067
1.00074
1.00042
1.00138
0.999527
1.00116
1.00014
1.00052
1.00018
0.999976
0.999054
0.997411
0.99741
0.999054
0.999976
1.00018
1.00052
1.00014
1.00116
0.999529
1.00138
1.00042
1.00074
1.00067
1.00068
1.00064
1.00058
1.00056
1.00059
1.00059
1.00064
1.00065
1.00069
1.00061
1.0009
0.999833
1.00167
0.999894
1.00082
1.00031
1.0004
1.00008
0.99943
0.997769
0.997769
0.99943
1.00008
1.0004
1.00031
1.00082
0.999896
1.00167
0.999835
1.0009
1.00061
1.00069
1.00066
1.00063
1.00062
1.00054
1.00056
1.00063
1.00063
1.00066
1.00064
1.00073
1.00037
1.00152
0.999416
1.00129
1.00019
1.00064
1.00034
1.00027
0.999655
0.998148
0.998148
0.999655
1.00027
1.00034
1.00064
1.00019
1.00129
0.999418
1.00151
1.00037
1.00073
1.00064
1.00066
1.00064
1.0006
1.00061
1.00062
1.00061
1.00064
1.00064
1.00068
1.00057
1.00096
0.999609
1.00198
0.999765
1.00095
1.00035
1.00053
1.00029
0.999909
0.998457
0.998458
0.999909
1.00029
1.00053
1.00035
1.00095
0.999766
1.00197
0.99961
1.00096
1.00057
1.00067
1.00064
1.00063
1.00063
1.00058
1.00059
1.00064
1.00062
1.00065
1.00062
1.00074
1.00026
1.00184
0.999001
1.00155
1.00011
1.00074
1.00041
1.00043
1.00003
0.998778
0.998778
1.00003
1.00043
1.00041
1.00074
1.00011
1.00155
0.999003
1.00184
1.00026
1.00074
1.00062
1.00065
1.00063
1.00061
1.00063
1.00064
1.00061
1.00064
1.00062
1.00067
1.00052
1.00109
0.999177
1.00253
0.999439
1.00111
1.00032
1.00062
1.00039
1.00021
0.999021
0.999021
1.00021
1.00039
1.00062
1.00032
1.00111
0.99944
1.00253
0.999178
1.00109
1.00052
1.00067
1.00062
1.00063
1.00063
1.0006
1.00061
1.00064
1.00062
1.00064
1.00059
1.00077
1.00008
1.00237
0.998287
1.00196
0.999915
1.00083
1.00041
1.00053
1.00025
0.999288
0.999287
1.00025
1.00053
1.00041
1.00083
0.999915
1.00196
0.998288
1.00237
1.00008
1.00077
1.00059
1.00064
1.00062
1.00062
1.00065
1.00065
1.00062
1.00063
1.0006
1.00066
1.00044
1.00129
0.998507
1.00341
0.998899
1.00135
1.00021
1.00068
1.00042
1.0004
0.999462
0.999462
1.0004
1.00042
1.00068
1.00021
1.00135
0.998899
1.00341
0.998508
1.00129
1.00045
1.00066
1.0006
1.00063
1.00064
1.00062
1.00062
1.00064
1.00061
1.00063
1.00055
1.00082
0.999808
1.00319
0.997191
1.00258
0.999592
1.00095
1.00035
1.00059
1.00036
0.999685
0.999685
1.00036
1.00059
1.00035
1.00095
0.999593
1.00258
0.997192
1.00319
0.999809
1.00082
1.00055
1.00063
1.00061
1.00063
1.00065
1.00066
1.00062
1.00063
1.00058
1.00066
1.00034
1.00159
0.997501
1.00473
0.998056
1.0017
1.00002
1.00074
1.00041
1.00051
0.999793
0.999793
1.00051
1.00041
1.00074
1.00002
1.0017
0.998056
1.00473
0.997502
1.00159
1.00034
1.00066
1.00058
1.00062
1.00063
1.00063
1.00062
1.00064
1.0006
1.00062
1.0005
1.00089
0.999408
1.00439
0.995527
1.00348
0.999088
1.00109
1.00024
1.00064
1.00041
0.999993
0.999992
1.00041
1.00064
1.00024
1.00109
0.999088
1.00348
0.995528
1.00439
0.999409
1.00089
1.0005
1.00062
1.0006
1.00062
1.00065
1.00066
1.00062
1.00063
1.00056
1.00067
1.0002
1.002
0.995963
1.00673
0.996681
1.00221
0.99968
1.0008
1.00034
1.0006
1.00004
1.00004
1.0006
1.00034
1.0008
0.99968
1.00221
0.996681
1.00673
0.995964
1.002
1.0002
1.00067
1.00057
1.00062
1.00063
1.00063
1.00061
1.00062
1.00059
1.00062
1.00045
1.00098
0.998794
1.00612
0.993027
1.00478
0.998238
1.00127
1.00003
1.00067
1.0004
1.00024
1.00024
1.0004
1.00067
1.00003
1.00127
0.998238
1.00478
0.993028
1.00612
0.998795
1.00098
1.00045
1.00062
1.00059
1.00061
1.00063
1.00065
1.00062
1.00063
1.00056
1.00069
1.00002
1.0025
0.993819
1.0103
0.99437
1.00306
0.999014
1.00087
1.00018
1.00066
1.00022
1.00022
1.00066
1.00018
1.00087
0.999014
1.00306
0.99437
1.0103
0.99382
1.0025
1.00002
1.00069
1.00056
1.00063
1.00063
1.00063
1.00057
1.00059
1.00057
1.00062
1.00042
1.00108
0.998155
1.00828
0.989186
1.00721
0.996762
1.0016
0.999557
1.0007
1.0003
1.00046
1.00046
1.0003
1.0007
0.999557
1.0016
0.996762
1.00721
0.989187
1.00828
0.998156
1.00108
1.00042
1.00062
1.00057
1.00058
1.00059
1.00064
1.00062
1.00064
1.00058
1.00075
1.00001
1.0028
0.991082
1.01795
0.989464
1.00533
0.997983
1.00119
0.999877
1.00076
1.00034
1.00035
1.00076
0.999877
1.00119
0.997983
1.00533
0.989465
1.01794
0.991083
1.0028
1.00001
1.00075
1.00058
1.00064
1.00062
1.00062
1.0005
1.00053
1.00052
1.00061
1.00046
1.00116
0.99826
1.0088
0.989402
1.01868
0.994772
1.00506
0.999898
1.00164
1.00053
1.0009
1.0009
1.00053
1.00164
0.999898
1.00506
0.994772
1.01868
0.989403
1.0088
0.99826
1.00116
1.00047
1.0006
1.00052
1.00052
1.00052
0.262283
0.44399
0.564137
0.608434
0.630004
0.631998
0.631721
0.615811
0.615895
0.593296
0.588875
0.569269
0.558036
0.539675
0.521176
0.502253
0.502251
0.521174
0.539674
0.558033
0.569268
0.588872
0.593296
0.615893
0.615813
0.631721
0.632
0.630005
0.608436
0.564136
0.443994
0.262275
0.395722
0.484733
0.560342
0.602113
0.624615
0.635267
0.629634
0.641076
0.609222
0.626437
0.592645
0.5916
0.56765
0.552911
0.531912
0.523239
0.523238
0.53191
0.552908
0.567649
0.591595
0.592646
0.62643
0.609227
0.641072
0.629638
0.635267
0.624617
0.602113
0.560346
0.484728
0.395737
0.476658
0.518932
0.562261
0.592687
0.612682
0.620479
0.630266
0.612968
0.639418
0.600502
0.616518
0.588134
0.581578
0.561882
0.548029
0.541996
0.541995
0.548027
0.56188
0.581574
0.588133
0.616511
0.600505
0.639409
0.612974
0.630265
0.620482
0.612682
0.59269
0.562258
0.518942
0.476637
0.521983
0.542504
0.566876
0.587498
0.602154
0.612104
0.611761
0.626731
0.599836
0.62705
0.596205
0.600973
0.582313
0.572771
0.55882
0.553668
0.553667
0.558818
0.572768
0.582311
0.600967
0.596205
0.627041
0.599842
0.626727
0.611764
0.612104
0.602157
0.587497
0.566882
0.542492
0.522013
0.547745
0.558085
0.572079
0.585425
0.596379
0.602718
0.609904
0.601558
0.622449
0.595604
0.610572
0.592354
0.589681
0.577493
0.568341
0.561478
0.561477
0.568339
0.577491
0.589678
0.592353
0.610566
0.595607
0.622442
0.601562
0.609904
0.60272
0.596378
0.585429
0.572073
0.5581
0.547709
0.562772
0.568387
0.576587
0.585281
0.592699
0.598776
0.60004
0.608986
0.594579
0.612201
0.594459
0.598502
0.588502
0.583257
0.573969
0.567455
0.567453
0.573967
0.583254
0.588501
0.598499
0.59446
0.612195
0.594583
0.608983
0.600043
0.598776
0.592702
0.585278
0.576595
0.568369
0.562813
0.572014
0.575171
0.580186
0.585786
0.591101
0.594894
0.599067
0.595813
0.607066
0.593241
0.60177
0.592716
0.591754
0.585245
0.57904
0.571481
0.57148
0.579038
0.585243
0.591752
0.592715
0.601766
0.593243
0.607062
0.595816
0.599067
0.594895
0.5911
0.585791
0.580178
0.575191
0.57197
0.577802
0.579755
0.582864
0.586587
0.590156
0.593431
0.594668
0.599266
0.592685
0.601612
0.593106
0.595377
0.590677
0.587957
0.581925
0.574921
0.57492
0.581924
0.587955
0.590676
0.595375
0.593107
0.601609
0.592688
0.599265
0.59467
0.593431
0.590159
0.586584
0.582873
0.579735
0.577848
0.581671
0.582831
0.584866
0.587325
0.589888
0.591961
0.594255
0.593165
0.598606
0.592294
0.596456
0.592356
0.592005
0.588738
0.584618
0.577323
0.577323
0.584616
0.588737
0.592004
0.592355
0.596454
0.592295
0.598603
0.593167
0.594255
0.591962
0.589887
0.587329
0.584857
0.582852
0.581624
0.584191
0.584995
0.586309
0.588004
0.589751
0.59148
0.592351
0.594692
0.591884
0.596124
0.592334
0.593454
0.591341
0.589953
0.586141
0.579502
0.579501
0.58614
0.589952
0.591341
0.593453
0.592334
0.596122
0.591886
0.594691
0.592352
0.591479
0.589753
0.588
0.586318
0.584974
0.584238
0.586001
0.586473
0.587389
0.58854
0.58982
0.590942
0.592209
0.591905
0.594574
0.591786
0.593792
0.591985
0.591858
0.590248
0.587579
0.581114
0.581114
0.587578
0.590248
0.591857
0.591985
0.593791
0.591787
0.594572
0.591907
0.592208
0.590943
0.589819
0.588544
0.587381
0.586494
0.585956
0.58719
0.587564
0.588167
0.588993
0.589883
0.590818
0.591366
0.592633
0.591412
0.593534
0.591842
0.592426
0.591478
0.590774
0.588406
0.582608
0.582608
0.588406
0.590774
0.591478
0.592425
0.591842
0.593532
0.591414
0.592632
0.591367
0.590817
0.589885
0.588989
0.588176
0.587544
0.587234
0.588113
0.588316
0.588765