VARIABLES="X","Y","Area"
ZONE T="Yeethaw"
Nodes=16512, Elements=16384, ZONETYPE=FEQuadrilateral
DATAPACKING=BLOCK
VARLOCATION=([3]=CELLCENTERED)1.00893
1.00797
1.00532
1.00111
0.995417
0.988309
0.979841
0.97007
0.959052
0.946842
0.933498
0.919076
0.903637
0.887237
0.869938
0.851798
0.832879
0.81324
0.792942
0.772043
0.750605
0.728685
0.706341
0.683631
0.66061
0.637333
0.613855
0.590227
0.566501
0.542727
0.518955
0.495232
0.471604
0.448117
0.424815
0.401742
0.378939
0.356449
0.334312
0.312567
0.291254
0.27041
0.250074
0.230282
0.211071
0.192475
0.174531
0.157273
0.140734
0.124948
0.109947
0.0957632
0.0824283
0.0699728
0.0584271
0.047821
0.0381841
0.0295459
0.0219364
0.0153876
0.00993468
0.00562038
0.00249722
0.000618352
0
0.000618352
0.00249722
0.00562038
0.00993468
0.0153876
0.0219364
0.0295459
0.0381841
0.047821
0.0584271
0.0699728
0.0824283
0.0957632
0.109947
0.124948
0.140734
0.157273
0.174531
0.192475
0.211071
0.230282
0.250074
0.27041
0.291254
0.312567
0.334312
0.356449
0.378939
0.401742
0.424815
0.448117
0.471604
0.495232
0.518955
0.542727
0.566501
0.590227
0.613855
0.637333
0.66061
0.683631
0.706341
0.728685
0.750605
0.772043
0.792942
0.81324
0.832879
0.851798
0.869938
0.887237
0.903637
0.919076
0.933498
0.946842
0.959052
0.97007
0.979841
0.988309
0.995417
1.00111
1.00532
1.00797
1.00987
1.00903
1.00657
1.00256
0.997066
0.990156
0.98188
0.972294
0.961451
0.949405
0.936211
0.921926
0.906607
0.890311
0.873098
0.855026
0.836156
0.816546
0.796257
0.775348
0.753878
0.731907
0.709492
0.68669
0.663559
0.640153
0.616527
0.592735
0.568828
0.544857
0.520873
0.496925
0.47306
0.449325
0.425766
0.402427
0.379352
0.356584
0.334165
0.312136
0.290538
0.26941
0.248792
0.228722
0.209237
0.190375
0.172172
0.154664
0.137885
0.12187
0.106652
0.0922649
0.07874
0.0661088
0.0544021
0.0436498
0.0338816
0.0251268
0.0174152
0.0107782
0.00525104
0.000877098
-0.00228859
-0.00418993
-0.00481338
-0.00418993
-0.00228859
0.000877098
0.00525104
0.0107782
0.0174152
0.0251268
0.0338816
0.0436498
0.0544021
0.0661088
0.07874
0.0922649
0.106652
0.12187
0.137885
0.154664
0.172172
0.190375
0.209237
0.228722
0.248792
0.26941
0.290538
0.312136
0.334165
0.356584
0.379352
0.402427
0.425766
0.449325
0.47306
0.496925
0.520873
0.544857
0.568828
0.592735
0.616527
0.640153
0.663559
0.68669
0.709492
0.731907
0.753878
0.775348
0.796257
0.816546
0.836156
0.855026
0.873098
0.890311
0.906607
0.921926
0.936211
0.949405
0.961451
0.972294
0.98188
0.990156
0.997066
1.00256
1.00657
1.00903
1.01244
1.01165
1.0093
1.00542
1.00008
0.993313
0.98518
0.975728
0.965009
0.953076
0.939982
0.925781
0.910529
0.894284
0.877103
0.859045
0.840168
0.820533
0.800198
0.779222
0.757666
0.735588
0.713046
0.690098
0.666801
0.643212
0.619384
0.595373
0.571232
0.547012
0.522765
0.498541
0.474388
0.450356
0.42649
0.402837
0.379443
0.356351
0.333606
0.311249
0.289323
0.26787
0.246929
0.226542
0.206746
0.18758
0.169082
0.15129
0.134238
0.117962
0.102498
0.0878779
0.0741354
0.0613022
0.0494095
0.0384875
0.0285658
0.0196737
0.0118406
0.00509758
-0.000519975
-0.00496755
-0.00818711
-0.0101188
-0.0107504
-0.0101188
-0.00818711
-0.00496755
-0.000519975
0.00509758
0.0118406
0.0196737
0.0285658
0.0384875
0.0494095
0.0613022
0.0741354
0.0878779
0.102498
0.117962
0.134238
0.15129
0.169082
0.18758
0.206746
0.226542
0.246929
0.26787
0.289323
0.311249
0.333606
0.356351
0.379443
0.402837
0.42649
0.450356
0.474388
0.498541
0.522765
0.547012
0.571232
0.595373
0.619384
0.643212
0.666801
0.690098
0.713046
0.735588
0.757666
0.779222
0.800198
0.820533
0.840168
0.859045
0.877103
0.894284
0.910529
0.925781
0.939982
0.953076
0.965009
0.975728
0.98518
0.993313
1.00008
1.00542
1.0093
1.01165
1.01655
1.01578
1.01349
1.0097
1.00445
0.997786
0.989747
0.980383
0.969741
0.957872
0.944828
0.93066
0.915425
0.899179
0.881977
0.863878
0.844941
0.825225
0.804788
0.783691
0.761992
0.739751
0.717026
0.693876
0.670358
0.646529
0.622445
0.59816
0.57373
0.549207
0.524643
0.50009
0.475598
0.451217
0.426994
0.402979
0.379216
0.355753
0.332634
0.309905
0.287607
0.265785
0.24448
0.223734
0.203587
0.184079
0.16525
0.147137
0.129778
0.113209
0.0974663
0.0825838
0.0685952
0.0555331
0.043429
0.0323134
0.022216
0.013166
0.00519261
-0.00167313
-0.00739556
-0.0119287
-0.0152113
-0.0171795
-0.0178215
-0.0171795
-0.0152113
-0.0119287
-0.00739556
-0.00167313
0.00519261
0.013166
0.022216
0.0323134
0.043429
0.0555331
0.0685952
0.0825838
0.0974663
0.113209
0.129778
0.147137
0.16525
0.184079
0.203587
0.223734
0.24448
0.265785
0.287607
0.309905
0.332634
0.355753
0.379216
0.402979
0.426994
0.451217
0.475598
0.50009
0.524643
0.549207
0.57373
0.59816
0.622445
0.646529
0.670358
0.693876
0.717026
0.739751
0.761992
0.783691
0.804788
0.825225
0.844941
0.863878
0.881977
0.899179
0.915425
0.93066
0.944828
0.957872
0.969741
0.980383
0.989747
0.997786
1.00445
1.0097
1.01349
1.01578
1.02213
1.02137
1.01912
1.01538
1.01019
1.00358
0.995593
0.986272
0.975662
0.96381
0.950767
0.936585
0.921316
0.905016
0.887741
0.869549
0.850498
0.830645
0.810052
0.788777
0.76688
0.744419
0.721455
0.698046
0.67425
0.650125
0.625728
0.601114
0.576338
0.551456
0.526521
0.501585
0.4767
0.451917
0.427286
0.402856
0.378675
0.354791
0.331251
0.308101
0.285385
0.263149
0.241436
0.220289
0.19975
0.17986
0.160661
0.142191
0.124489
0.107593
0.091539
0.076363
0.062099
0.0487803
0.0364388
0.0251054
0.01481
0.00558176
-0.00255007
-0.00955447
-0.0153952
-0.0200247
-0.0233782
-0.0253878
-0.0260422
-0.0253878
-0.0233782
-0.0200247
-0.0153952
-0.00955447
-0.00255007
0.00558176
0.01481
0.0251054
0.0364388
0.0487803
0.062099
0.076363
0.091539
0.107593
0.124489
0.142191
0.160661
0.17986
0.19975
0.220289
0.241436
0.263149
0.285385
0.308101
0.331251
0.354791
0.378675
0.402856
0.427286
0.451917
0.4767
0.501585
0.526521
0.551456
0.576338
0.601114
0.625728
0.650125
0.67425
0.698046
0.721455
0.744419
0.76688
0.788777
0.810052
0.830645
0.850498
0.869549
0.887741
0.905016
0.921316
0.936585
0.950767
0.96381
0.975662
0.986272
0.995593
1.00358
1.01019
1.01538
1.01912
1.02137
1.02916
1.02841
1.02617
1.02246
1.01729
1.0107
1.00273
0.993409
0.982787
0.970908
0.957821
0.943575
0.928223
0.911819
0.89442
0.876082
0.856862
0.83682
0.816014
0.794505
0.772352
0.749616
0.726355
0.702629
0.678498
0.654019
0.629251
0.60425
0.579073
0.553775
0.528412
0.503037
0.477704
0.452465
0.427371
0.402473
0.377822
0.353466
0.329454
0.305834
0.282653
0.259956
0.237789
0.216196
0.195223
0.17491
0.1553
0.136435
0.118353
0.101094
0.0846961
0.0691945
0.0546249
0.0410212
0.0284159
0.0168402
0.00632433
-0.00310243
-0.0114107
-0.0185692
-0.0245409
-0.0292766
-0.0327082
-0.0347638
-0.0354322
-0.0347638
-0.0327082
-0.0292766
-0.0245409
-0.0185692
-0.0114107
-0.00310243
0.00632433
0.0168402
0.0284159
0.0410212
0.0546249
0.0691945
0.0846961
0.101094
0.118353
0.136435
0.1553
0.17491
0.195223
0.216196
0.237789
0.259956
0.282653
0.305834
0.329454
0.353466
0.377822
0.402473
0.427371
0.452465
0.477704
0.503037
0.528412
0.553775
0.579073
0.60425
0.629251
0.654019
0.678498
0.702629
0.726355
0.749616
0.772352
0.794505
0.816014
0.83682
0.856862
0.876082
0.89442
0.911819
0.928223
0.943575
0.957821
0.970908
0.982787
0.993409
1.00273
1.0107
1.01729
1.02246
1.02617
1.02841
1.03763
1.03688
1.03464
1.03093
1.02576
1.01916
1.01116
1.00181
0.991134
0.979185
0.966008
0.951652
0.936169
0.919613
0.902037
0.8835
0.864058
0.843771
0.822698
0.800899
0.778434
0.755364
0.731748
0.707647
0.683122
0.65823
0.633032
0.607585
0.581948
0.556176
0.530327
0.504456
0.478617
0.452865
0.427253
0.401834
0.376658
0.351777
0.327242
0.303101
0.279403
0.256197
0.233529
0.211446
0.189992
0.169213
0.149152
0.129851
0.111352
0.0936938
0.076916
0.0610559
0.0461496
0.0322318
0.0193355
0.0074926
-0.00326646
-0.0129121
-0.0214146
-0.0287423
-0.0348574
-0.0397089
-0.0432253
-0.0453311
-0.046015
-0.0453311
-0.0432253
-0.0397089
-0.0348574
-0.0287423
-0.0214146
-0.0129121
-0.00326646
0.0074926
0.0193355
0.0322318
0.0461496
0.0610559
0.076916
0.0936938
0.111352
0.129851
0.149152
0.169213
0.189992
0.211446
0.233529
0.256197
0.279403
0.303101
0.327242
0.351777
0.376658
0.401834
0.427253
0.452865
0.478617
0.504456
0.530327
0.556176
0.581948
0.607585
0.633032
0.65823
0.683122
0.707647
0.731748
0.755364
0.778434
0.800899
0.822698
0.843771
0.864058
0.8835
0.902037
0.919613
0.936169
0.951652
0.966008
0.979185
0.991134
1.00181
1.01116
1.01916
1.02576
1.03093
1.03464
1.03688
1.04753
1.04678
1.04453
1.0408
1.0356
1.02896
1.02091
1.01149
1.00072
0.988661
0.975351
0.960841
0.945179
0.92842
0.910618
0.89183
0.872113
0.851527
0.83013
0.807984
0.785149
0.761686
0.737656
0.713121
0.688141
0.662777
0.637089
0.611136
0.584978
0.558673
0.532278
0.505851
0.479448
0.453126
0.426938
0.400939
0.375183
0.349722
0.324609
0.299895
0.27563
0.251864
0.228646
0.206024
0.184045
0.162755
0.142199
0.122421
0.103464
0.0853688
0.0681756
0.051923
0.036648
0.0223861
0.00917112
-0.00296449
-0.0139898
-0.0238748
-0.0325895
-0.0401016
-0.0463723
-0.0513488
-0.0549567
-0.0571168
-0.0578177
-0.0571168
-0.0549567
-0.0513488
-0.0463723
-0.0401016
-0.0325895
-0.0238748
-0.0139898
-0.00296449
0.00917112
0.0223861
0.036648
0.051923
0.0681756
0.0853688
0.103464
0.122421
0.142199
0.162755
0.184045
0.206024
0.228646
0.251864
0.27563
0.299895
0.324609
0.349722
0.375183
0.400939
0.426938
0.453126
0.479448
0.505851
0.532278
0.558673
0.584978
0.611136
0.637089
0.662777
0.688141
0.713121
0.737656
0.761686
0.785149
0.807984
0.83013
0.851527
0.872113
0.89183
0.910618
0.92842
0.945179
0.960841
0.975351
0.988661
1.00072
1.01149
1.02091
1.02896
1.0356
1.0408
1.04453
1.04678
1.05888
1.05812
1.05585
1.05209
1.04684
1.04013
1.032
1.02246
1.01157
0.99936
0.985876
0.971165
0.955278
0.938268
0.920189
0.901098
0.881052
0.860111
0.838335
0.815784
0.79252
0.768606
0.744102
0.719072
0.693577
0.667679
0.641439
0.614919
0.588178
0.561277
0.534275
0.507232
0.480204
0.453251
0.426428
0.399791
0.373397
0.347299
0.321552
0.29621
0.271324
0.246946
0.223127
0.199916
0.177364
0.155516
0.134421
0.114123
0.0946675
0.0760959
0.0584501
0.0417698
0.026093
0.0114562
-0.00210589
-0.0145603
-0.0258754
-0.0360207
-0.0449656
-0.0526772
-0.0591159
-0.0642268
-0.0679327
-0.0701512
-0.0708705
-0.0701512
-0.0679327
-0.0642268
-0.0591159
-0.0526772
-0.0449656
-0.0360207
-0.0258754
-0.0145603
-0.00210589
0.0114562
0.026093
0.0417698
0.0584501
0.0760959
0.0946675
0.114123
0.134421
0.155516
0.177364
0.199916
0.223127
0.246946
0.271324
0.29621
0.321552
0.347299
0.373397
0.399791
0.426428
0.453251
0.480204
0.507232
0.534275
0.561277
0.588178
0.614919
0.641439
0.667679
0.693577
0.719072
0.744102
0.768606
0.79252
0.815784
0.838335
0.860111
0.881052
0.901098
0.920189
0.938268
0.955278
0.971165
0.985876
0.99936
1.01157
1.02246
1.032
1.04013
1.04684
1.05209
1.05585
1.05812
1.07167
1.07091
1.06861
1.0648
1.05948
1.05268
1.04443
1.03476
1.02371
1.01131
0.997607
0.982652
0.966494
0.949185
0.930779
0.911332
0.890903
0.869552
0.847339
0.824326
0.800575
0.776148
0.75111
0.725523
0.69945
0.672955
0.6461
0.618948
0.591562
0.564002
0.53633
0.508606
0.480892
0.453245
0.425725
0.39839
0.371297
0.344504
0.318066
0.292038
0.266475
0.241431
0.216958
0.193108
0.169932
0.147479
0.125798
0.104936
0.0849384
0.0658498
0.0477128
0.0305684
0.0144557
-0.000587711
-0.0145263
-0.0273262
-0.0389552
-0.0493821
-0.0585757
-0.0665024
-0.0731215
-0.0783763
-0.082187
-0.0844678
-0.0852071
-0.0844678
-0.082187
-0.0783763
-0.0731215
-0.0665024
-0.0585757
-0.0493821
-0.0389552
-0.0273262
-0.0145263
-0.000587711
0.0144557
0.0305684
0.0477128
0.0658498
0.0849384
0.104936
0.125798
0.147479
0.169932
0.193108
0.216958
0.241431
0.266475
0.292038
0.318066
0.344504
0.371297
0.39839
0.425725
0.453245
0.480892
0.508606
0.53633
0.564002
0.591562
0.618948
0.6461
0.672955
0.69945
0.725523
0.75111
0.776148
0.800575
0.824326
0.847339
0.869552
0.890903
0.911332
0.930779
0.949185
0.966494
0.982652
0.997607
1.01131
1.02371
1.03476
1.04443
1.05268
1.05948
1.0648
1.06861
1.07091
1.08594
1.08516
1.08283
1.07895
1.07355
1.06664
1.05825
1.04841
1.03716
1.02453
1.01057
0.995332
0.978857
0.9612
0.942416
0.922561
0.901696
0.879878
0.857171
0.833636
0.809337
0.784337
0.758702
0.732494
0.70578
0.678624
0.651089
0.623241
0.595143
0.566859
0.538451
0.509983
0.481516
0.453112
0.424832
0.396736
0.368883
0.341332
0.314142
0.28737
0.261073
0.235306
0.210124
0.185581
0.16173
0.138622
0.116307
0.0948339
0.0742508
0.0546031
0.035935
0.0182888
0.00170495
-0.0137779
-0.0281232
-0.0412962
-0.0532639
-0.0639942
-0.0734555
-0.0816131
-0.0884253
-0.0938338
-0.097756
-0.100104
-0.100864
-0.100104
-0.097756
-0.0938338
-0.0884253
-0.0816131
-0.0734555
-0.0639942
-0.0532639
-0.0412962
-0.0281232
-0.0137779
0.00170495
0.0182888
0.035935
0.0546031
0.0742508
0.0948339
0.116307
0.138622
0.16173
0.185581
0.210124
0.235306
0.261073
0.28737
0.314142
0.341332
0.368883
0.396736
0.424832
0.453112
0.481516
0.509983
0.538451
0.566859
0.595143
0.623241
0.651089
0.678624
0.70578
0.732494
0.758702
0.784337
0.809337
0.833636
0.857171
0.879878
0.901696
0.922561
0.942416
0.9612
0.978857
0.995332
1.01057
1.02453
1.03716
1.04841
1.05825
1.06664
1.07355
1.07895
1.08283
1.08516
1.10171
1.10091
1.09853
1.09458
1.08908
1.08203
1.07347
1.06343
1.05195
1.03906
1.02481
1.00923
0.992397
0.974344
0.955132
0.934817
0.913459
0.891119
0.867859
0.843743
0.818835
0.793199
0.766902
0.74001
0.712589
0.684705
0.656424
0.627813
0.598936
0.56986
0.54065
0.51137
0.482084
0.452856
0.42375
0.394827
0.366149
0.337778
0.309774
0.282197
0.255105
0.228557
0.202609
0.177318
0.152738
0.128922
0.105923
0.0837915
0.0625768
0.0423263
0.0230857
0.00489871
-0.0121928
-0.028149
-0.0429322
-0.0565067
-0.0688386
-0.079895
-0.0896433
-0.0980482
-0.105067
-0.110639
-0.11468
-0.117098
-0.117882
-0.117098
-0.11468
-0.110639
-0.105067
-0.0980482
-0.0896433
-0.079895
-0.0688386
-0.0565067
-0.0429322
-0.028149
-0.0121928
0.00489871
0.0230857
0.0423263
0.0625768
0.0837915
0.105923
0.128922
0.152738
0.177318
0.202609
0.228557
0.255105
0.282197
0.309774
0.337778
0.366149
0.394827
0.42375
0.452856
0.482084
0.51137
0.54065
0.56986
0.598936
0.627813
0.656424
0.684705
0.712589
0.74001
0.766902
0.793199
0.818835
0.843743
0.867859
0.891119
0.913459
0.934817
0.955132
0.974344
0.992397
1.00923
1.02481
1.03906
1.05195
1.06343
1.07347
1.08203
1.08908
1.09458
1.09853
1.10091
1.11899
1.11818
1.11575
1.11172
1.10609
1.09888
1.09014
1.07987
1.06812
1.05493
1.04034
1.0244
1.00715
0.988652
0.96896
0.948132
0.926226
0.903306
0.879434
0.854675
0.829095
0.80276
0.775737
0.748094
0.719899
0.691219
0.662124
0.63268
0.602955
0.573018
0.542935
0.512774
0.4826
0.45248
0.422479
0.392662
0.363093
0.333835
0.304953
0.276507
0.248558
0.221168
0.194395
0.168297
0.142932
0.118355
0.0946204
0.0717805
0.0498866
0.0289879
0.00913182
-0.00963636
-0.0272733
-0.043738
-0.0589915
-0.0729969
-0.0857193
-0.0971251
-0.107181
-0.11585
-0.123088
-0.128835
-0.133001
-0.135495
-0.136303
-0.135495
-0.133001
-0.128835
-0.123088
-0.11585
-0.107181
-0.0971251
-0.0857193
-0.0729969
-0.0589915
-0.043738
-0.0272733
-0.00963636
0.00913182
0.0289879
0.0498866
0.0717805
0.0946204
0.118355
0.142932
0.168297
0.194395
0.221168
0.248558
0.276507
0.304953
0.333835
0.363093
0.392662
0.422479
0.45248
0.4826
0.512774
0.542935
0.573018
0.602955
0.63268
0.662124
0.691219
0.719899
0.748094
0.775737
0.80276
0.829095
0.854675
0.879434
0.903306
0.926226
0.948132
0.96896
0.988652
1.00715
1.0244
1.04034
1.05493
1.06812
1.07987
1.09014
1.09888
1.10609
1.11172
1.11575
1.11818
1.13784
1.13701
1.13452
1.13039
1.12462
1.11724
1.10827
1.09775
1.08571
1.07218
1.05721
1.04085
1.02315
1.00416
0.983937
0.96254
0.940031
0.916472
0.891928
0.866464
0.840148
0.813048
0.785232
0.75677
0.727731
0.698186
0.668205
0.637858
0.607214
0.576344
0.545316
0.514202
0.483068
0.451985
0.421019
0.390237
0.359708
0.329496
0.299667
0.270286
0.241417
0.213121
0.185462
0.158498
0.13229
0.106896
0.0823708
0.0587706
0.036148
0.014554
-0.00596217
-0.0253535
-0.0435753
-0.0605848
-0.076342
-0.0908088
-0.103949
-0.115728
-0.126112
-0.135063
-0.142535
-0.148467
-0.152767
-0.155341
-0.156175
-0.155341
-0.152767
-0.148467
-0.142535
-0.135063
-0.126112
-0.115728
-0.103949
-0.0908088
-0.076342
-0.0605848
-0.0435753
-0.0253535
-0.00596217
0.014554
0.036148
0.0587706
0.0823708
0.106896
0.13229
0.158498
0.185462
0.213121
0.241417
0.270286
0.299667
0.329496
0.359708
0.390237
0.421019
0.451985
0.483068
0.514202
0.545316
0.576344
0.607214
0.637858
0.668205
0.698186
0.727731
0.75677
0.785232
0.813048
0.840148
0.866464
0.891928
0.916472
0.940031
0.96254
0.983937
1.00416
1.02315
1.04085
1.05721
1.07218
1.08571
1.09775
1.10827
1.11724
1.12462
1.13039
1.13452
1.13701
1.15829
1.15744
1.15488
1.15064
1.14472
1.13714
1.12793
1.11712
1.10474
1.09084
1.07546
1.05864
1.04044
1.0209
1.0001
0.97808
0.95491
0.930653
0.905374
0.879142
0.852024
0.824091
0.795414
0.766063
0.73611
0.705627
0.674688
0.643363
0.611726
0.579849
0.547803
0.515661
0.483494
0.451373
0.419368
0.38755
0.355988
0.324751
0.293907
0.263522
0.233664
0.204398
0.175787
0.147896
0.120785
0.0945145
0.0691437
0.0447293
0.0213265
-0.00101174
-0.0222343
-0.0422924
-0.0611397
-0.0787319
-0.0950276
-0.109987
-0.123574
-0.135752
-0.146485
-0.155736
-0.163457
-0.169585
-0.174027
-0.176685
-0.177547
-0.176685
-0.174027
-0.169585
-0.163457
-0.155736
-0.146485
-0.135752
-0.123574
-0.109987
-0.0950276
-0.0787319
-0.0611397
-0.0422924
-0.0222343
-0.00101174
0.0213265
0.0447293
0.0691437
0.0945145
0.120785
0.147896
0.175787
0.204398
0.233664
0.263522
0.293907
0.324751
0.355988
0.38755
0.419368
0.451373
0.483494
0.515661
0.547803
0.579849
0.611726
0.643363
0.674688
0.705627
0.73611
0.766063
0.795414
0.824091
0.852024
0.879142
0.905374
0.930653
0.95491
0.97808
1.0001
1.0209
1.04044
1.05864
1.07546
1.09084
1.10474
1.11712
1.12793
1.13714
1.14472
1.15064
1.15488
1.15744
1.18038
1.1795
1.17688
1.17251
1.16642
1.15862
1.14914
1.13802
1.12528
1.11097
1.09513
1.07781
1.05906
1.03893
1.01749
0.99479
0.9709
0.945884
0.919807
0.892741
0.864755
0.83592
0.806311
0.775999
0.745058
0.713564
0.681591
0.649214
0.616507
0.583545
0.550404
0.517158
0.48388
0.450645
0.417526
0.384596
0.351927
0.319591
0.287658
0.256199
0.225283
0.194978
0.16535
0.136465
0.108388
0.0811816
0.0549064
0.0296218
0.00538523
-0.0177481
-0.0397253
-0.0604955
-0.0800106
-0.0982249
-0.115095
-0.130581
-0.144643
-0.157245
-0.168351
-0.17792
-0.185906
-0.192242
-0.196834
-0.199582
-0.200473
-0.199582
-0.196834
-0.192242
-0.185906
-0.17792
-0.168351
-0.157245
-0.144643
-0.130581
-0.115095
-0.0982249
-0.0800106
-0.0604955
-0.0397253
-0.0177481
0.00538523
0.0296218
0.0549064
0.0811816
0.108388
0.136465
0.16535
0.194978
0.225283
0.256199
0.287658
0.319591
0.351927
0.384596
0.417526
0.450645
0.48388
0.517158
0.550404
0.583545
0.616507
0.649214
0.681591
0.713564
0.745058
0.775999
0.806311
0.83592
0.864755
0.892741
0.919807
0.945884
0.9709
0.99479
1.01749
1.03893
1.05906
1.07781
1.09513
1.11097
1.12528
1.13802
1.14914
1.15862
1.16642
1.17251
1.17688
1.1795
1.20416
1.20326
1.20055
1.19605
1.18977
1.18173
1.17197
1.1605
1.14736
1.1326
1.11627
1.0984
1.07905
1.05828
1.03615
1.01271
0.988043
0.962205
0.935266
0.907298
0.878374
0.848567
0.817952
0.786605
0.754602
0.722019
0.688935
0.655426
0.621571
0.587446
0.553129
0.518699
0.484231
0.449802
0.41549
0.38137
0.347516
0.314004
0.280908
0.248301
0.216253
0.184838
0.154123
0.124179
0.0950704
0.0668643
0.0396239
0.0134108
-0.0117152
-0.0356967
-0.0584785
-0.080008
-0.100235
-0.119112
-0.136595
-0.15264
-0.167209
-0.180263
-0.191764
-0.201672
-0.209938
-0.216494
-0.221245
-0.224088
-0.225011
-0.224088
-0.221245
-0.216494
-0.209938
-0.201672
-0.191764
-0.180263
-0.167209
-0.15264
-0.136595
-0.119112
-0.100235
-0.080008
-0.0584785
-0.0356967
-0.0117152
0.0134108
0.0396239
0.0668643
0.0950704
0.124179
0.154123
0.184838
0.216253
0.248301
0.280908
0.314004
0.347516
0.38137
0.41549
0.449802
0.484231
0.518699
0.553129
0.587446
0.621571
0.655426
0.688935
0.722019
0.754602
0.786605
0.817952
0.848567
0.878374
0.907298
0.935266
0.962205
0.988043
1.01271
1.03615
1.05828
1.07905
1.0984
1.11627
1.1326
1.14736
1.1605
1.17197
1.18173
1.18977
1.19605
1.20055
1.20326
1.22969
1.22875
1.22596
1.22131
1.21483
1.20653
1.19645
1.18461
1.17104
1.1558
1.13892
1.12046
1.10047
1.079
1.05612
1.03189
1.00638
0.979657
0.951789
0.922851
0.892918
0.862065
0.83037
0.797911
0.764766
0.731016
0.69674
0.662019
0.626933
0.591562
0.555987
0.52029
0.484549
0.448845
0.413257
0.377865
0.342747
0.30798
0.273642
0.239808
0.206554
0.173955
0.142081
0.111006
0.0807991
0.0515278
0.0232589
-0.00394336
-0.0300168
-0.0549016
-0.0785403
-0.100878
-0.121863
-0.141446
-0.159579
-0.17622
-0.191328
-0.204862
-0.216783
-0.22705
-0.235613
-0.242402
-0.247321
-0.250265
-0.251221
-0.250265
-0.247321
-0.242402
-0.235613
-0.22705
-0.216783
-0.204862
-0.191328
-0.17622
-0.159579
-0.141446
-0.121863
-0.100878
-0.0785403
-0.0549016
-0.0300168
-0.00394336
0.0232589
0.0515278
0.0807991
0.111006
0.142081
0.173955
0.206554
0.239808
0.273642
0.30798
0.342747
0.377865
0.413257
0.448845
0.484549
0.52029
0.555987
0.591562
0.626933
0.662019
0.69674
0.731016
0.764766
0.797911
0.83037
0.862065
0.892918
0.922851
0.951789
0.979657
1.00638
1.03189
1.05612
1.079
1.10047
1.12046
1.13892
1.1558
1.17104
1.18461
1.19645
1.20653
1.21483
1.22131
1.22596
1.22875
1.25701
1.25605
1.25316
1.24836
1.24166
1.23308
1.22265
1.2104
1.19637
1.18061
1.16315
1.14405
1.12336
1.10114
1.07746
1.05238
1.02596
0.998284
0.969419
0.939439
0.908423
0.876449
0.843596
0.809946
0.775579
0.740579
0.705028
0.66901
0.632608
0.595906
0.558988
0.521937
0.484838
0.447772
0.410824
0.374075
0.337608
0.301503
0.265842
0.230702
0.196163
0.162302
0.129196
0.096917
0.0655398
0.0351349
0.00577154
-0.0224832
-0.0495645
-0.07541
-0.09996
-0.123157
-0.144948
-0.16528
-0.184106
-0.20138
-0.217059
-0.231102
-0.243469
-0.254116
-0.262994
-0.27003
-0.275126
-0.278177
-0.279168
-0.278177
-0.275126
-0.27003
-0.262994
-0.254116
-0.243469
-0.231102
-0.217059
-0.20138
-0.184106
-0.16528
-0.144948
-0.123157
-0.09996
-0.07541
-0.0495645
-0.0224832
0.00577154
0.0351349
0.0655398
0.096917
0.129196
0.162302
0.196163
0.230702
0.265842
0.301503
0.337608
0.374075
0.410824
0.447772
0.484838
0.521937
0.558988
0.595906
0.632608
0.66901
0.705028
0.740579
0.775579
0.809946
0.843596
0.876449
0.908423
0.939439
0.969419
0.998284
1.02596
1.05238
1.07746
1.10114
1.12336
1.14405
1.16315
1.18061
1.19637
1.2104
1.22265
1.23308
1.24166
1.24836
1.25316
1.25605
1.2862
1.28521
1.28222
1.27724
1.27031
1.26143
1.25063
1.23795
1.22342
1.20709
1.189
1.16922
1.14778
1.12476
1.10022
1.07422
1.04683
1.01813
0.988199
0.957104
0.924929
0.891756
0.857665
0.822741
0.787069
0.750734
0.713822
0.67642
0.638614
0.600492
0.562141
0.523648
0.4851
0.446584
0.408186
0.369993
0.33209
0.294561
0.257491
0.220962
0.185056
0.149854
0.115435
0.0818766
0.0492556
0.0176457
-0.0128807
-0.0422538
-0.070406
-0.0972722
-0.12279
-0.1469
-0.169546
-0.190674
-0.210235
-0.22818
-0.244465
-0.259049
-0.271888
-0.282939
-0.292149
-0.299446
-0.30473
-0.307893
-0.308921
-0.307893
-0.30473
-0.299446
-0.292149
-0.282939
-0.271888
-0.259049
-0.244465
-0.22818
-0.210235
-0.190674
-0.169546
-0.1469
-0.12279
-0.0972722
-0.070406
-0.0422538
-0.0128807
0.0176457
0.0492556
0.0818766
0.115435
0.149854
0.185056
0.220962
0.257491
0.294561
0.33209
0.369993
0.408186
0.446584
0.4851
0.523648
0.562141
0.600492
0.638614
0.67642
0.713822
0.750734
0.787069
0.822741
0.857665
0.891756
0.924929
0.957104
0.988199
1.01813
1.04683
1.07422
1.10022
1.12476
1.14778
1.16922
1.189
1.20709
1.22342
1.23795
1.25063
1.26143
1.27031
1.27724
1.28222
1.28521
1.31733
1.31629
1.31319
1.30804
1.30085
1.29164
1.28045
1.2673
1.25224
1.23531
1.21655
1.19603
1.17379
1.14991
1.12444
1.09746
1.06904
1.03925
1.00818
0.97589
0.942478
0.908024
0.872612
0.83633
0.799266
0.761507
0.723144
0.684267
0.644966
0.605331
0.565455
0.525426
0.485337
0.445278
0.405339
0.36561
0.32618
0.287137
0.24857
0.210564
0.173205
0.136579
0.100766
0.0658491
0.0319073
-0.000981875
-0.0327431
-0.0633034
-0.0925921
-0.120541
-0.147086
-0.172165
-0.195718
-0.217691
-0.23803
-0.256687
-0.273615
-0.28877
-0.30211
-0.313587
-0.323149
-0.330722
-0.336204
-0.339487
-0.340554
-0.339487
-0.336204
-0.330722
-0.323149
-0.313587
-0.30211
-0.28877
-0.273615
-0.256687
-0.23803
-0.217691
-0.195718
-0.172165
-0.147086
-0.120541
-0.0925921
-0.0633034
-0.0327431
-0.000981875
0.0319073
0.0658491
0.100766
0.136579
0.173205
0.210564
0.24857
0.287137
0.32618
0.36561
0.405339
0.445278
0.485337
0.525426
0.565455
0.605331
0.644966
0.684267
0.723144
0.761507
0.799266
0.83633
0.872612
0.908024
0.942478
0.97589
1.00818
1.03925
1.06904
1.09746
1.12444
1.14991
1.17379
1.19603
1.21655
1.23531
1.25224
1.2673
1.28045
1.29164
1.30085
1.30804
1.31319
1.31629
1.35046
1.34938
1.34617
1.34082
1.33336
1.32381
1.31219
1.29854
1.28291
1.26533
1.24586
1.22455
1.20146
1.17665
1.1502
1.12218
1.09265
1.0617
1.0294
0.995844
0.961114
0.925295
0.888476
0.850747
0.8122
0.772926
0.73302
0.692573
0.651681
0.610439
0.56894
0.52728
0.485553
0.443854
0.402278
0.360917
0.319865
0.279215
0.239058
0.199485
0.160585
0.122446
0.0851546
0.0487961
0.0134532
-0.0207929
-0.0538637
-0.0856829
-0.116177
-0.145274
-0.172908
-0.199013
-0.223528
-0.246395
-0.26756
-0.28697
-0.304579
-0.32034
-0.334208
-0.346137
-0.356072
-0.363936
-0.369627
-0.373035
-0.374145
-0.373035
-0.369627
-0.363936
-0.356072
-0.346137
-0.334208
-0.32034
-0.304579
-0.28697
-0.26756
-0.246395
-0.223528
-0.199013
-0.172908
-0.145274
-0.116177
-0.0856829
-0.0538637
-0.0207929
0.0134532
0.0487961
0.0851546
0.122446
0.160585
0.199485
0.239058
0.279215
0.319865
0.360917
0.402278
0.443854
0.485553
0.52728
0.56894
0.610439
0.651681
0.692573
0.73302
0.772926
0.8122
0.850747
0.888476
0.925295
0.961114
0.995844
1.0294
1.0617
1.09265
1.12218
1.1502
1.17665
1.20146
1.22455
1.24586
1.26533
1.28291
1.29854
1.31219
1.32381
1.33336
1.34082
1.34617
1.34938
1.38567
1.38456
1.38122
1.37566
1.36791
1.35798
1.34591
1.33174
1.31549
1.29722
1.27699
1.25484
1.23084
1.20506
1.17756
1.14841
1.11771
1.08552
1.05192
1.01702
0.980882
0.943611
0.905295
0.866029
0.825905
0.785021
0.743474
0.70136
0.658779
0.615828
0.572607
0.529214
0.485749
0.44231
0.398995
0.355903
0.313132
0.270776
0.228934
0.187698
0.147164
0.107422
0.0685631
0.0306765
-0.00615113
-0.0418353
-0.0762936
-0.109447
-0.141217
-0.171531
-0.200318
-0.22751
-0.253043
-0.276858
-0.298896
-0.319104
-0.337433
-0.353835
-0.368263
-0.380669
-0.390996
-0.399169
-0.405081
-0.408621
-0.409775
-0.408621
-0.405081
-0.399169
-0.390996
-0.380669
-0.368263
-0.353835
-0.337433
-0.319104
-0.298896
-0.276858
-0.253043
-0.22751
-0.200318
-0.171531
-0.141217
-0.109447
-0.0762936
-0.0418353
-0.00615113
0.0306765
0.0685631
0.107422
0.147164
0.187698
0.228934
0.270776
0.313132
0.355903
0.398995
0.44231
0.485749
0.529214
0.572607
0.615828
0.658779
0.70136
0.743474
0.785021
0.825905
0.866029
0.905295
0.943611
0.980882
1.01702
1.05192
1.08552
1.11771
1.14841
1.17756
1.20506
1.23084
1.25484
1.27699
1.29722
1.31549
1.33174
1.34591
1.35798
1.36791
1.37566
1.38122
1.38456
1.42305
1.42189
1.41842
1.41264
1.40458
1.39426
1.38171
1.36697
1.35007
1.33107
1.31002
1.28698
1.26201
1.23518
1.20657
1.17624
1.14428
1.11077
1.0758
1.03946
1.00183
0.963019
0.923113
0.882213
0.840416
0.797822
0.754533
0.71065
0.666276
0.621513
0.576465
0.531235
0.485926
0.440642
0.395485
0.350558
0.305964
0.261802
0.218173
0.175177
0.13291
0.0914705
0.0509518
0.0114471
-0.0269529
-0.0641596
-0.100087
-0.134652
-0.167774
-0.199375
-0.229383
-0.257725
-0.284336
-0.309152
-0.332114
-0.353167
-0.372257
-0.389336
-0.404356
-0.417266
-0.428008
-0.436506
-0.442651
-0.446332
-0.447531
-0.446332
-0.442651
-0.436506
-0.428008
-0.417266
-0.404356
-0.389336
-0.372257
-0.353167
-0.332114
-0.309152
-0.284336
-0.257725
-0.229383
-0.199375
-0.167774
-0.134652
-0.100087
-0.0641596
-0.0269529
0.0114471
0.0509518
0.0914705
0.13291
0.175177
0.218173
0.261802
0.305964
0.350558
0.395485
0.440642
0.485926
0.531235
0.576465
0.621513
0.666276
0.71065
0.754533
0.797822
0.840416
0.882213
0.923113
0.963019
1.00183
1.03946
1.0758
1.11077
1.14428
1.17624
1.20657
1.23518
1.26201
1.28698
1.31002
1.33107
1.35007
1.36697
1.38171
1.39426
1.40458
1.41264
1.41842
1.42189
1.46268
1.46148
1.45786
1.45185
1.44346
1.43272
1.41966
1.40431
1.38673
1.36695
1.34504
1.32105
1.29505
1.26711
1.23731
1.20572
1.17243
1.13752
1.10109
1.06322
1.02401
0.983565
0.941973
0.89934
0.855768
0.811362
0.766226
0.720468
0.674193
0.62751
0.580526
0.533349
0.486087
0.438848
0.39174
0.34487
0.298345
0.25227
0.206751
0.16189
0.117791
0.0745542
0.0322786
-0.00893851
-0.0490022
-0.0878198
-0.125301
-0.16136
-0.195911
-0.228875
-0.260173
-0.289732
-0.317482
-0.343358
-0.367297
-0.389241
-0.409136
-0.426931
-0.442575
-0.456018
-0.467199
-0.476039
-0.48243
-0.486258
-0.487507
-0.486258
-0.48243
-0.476039
-0.467199
-0.456018
-0.442575
-0.426931
-0.409136
-0.389241
-0.367297
-0.343358
-0.317482
-0.289732
-0.260173
-0.228875
-0.195911
-0.16136
-0.125301
-0.0878198
-0.0490022
-0.00893851
0.0322786
0.0745542
0.117791
0.16189
0.206751
0.25227
0.298345
0.34487
0.39174
0.438848
0.486087
0.533349
0.580526
0.62751
0.674193
0.720468
0.766226
0.811362
0.855768
0.89934
0.941973
0.983565
1.02401
1.06322
1.10109
1.13752
1.17243
1.20572
1.23731
1.26711
1.29505
1.32105
1.34504
1.36695
1.38673
1.40431
1.41966
1.43272
1.44346
1.45185
1.45786
1.46148
1.50467
1.50341
1.49964
1.49339
1.48465
1.47346
1.45986
1.44387
1.42555
1.40494
1.38211
1.35712
1.33003
1.30091
1.26985
1.23693
1.20223
1.16584
1.12785
1.08837
1.04749
1.0053
0.961923
0.917453
0.872001
0.825674
0.778583
0.730838
0.682551
0.633834
0.5848
0.535562
0.486233
0.436925
0.387753
0.338826
0.290259
0.24216
0.19464
0.147808
0.10177
0.0566323
0.0124988
-0.0305291
-0.0723519
-0.112873
-0.151998
-0.189635
-0.225698
-0.2601
-0.292763
-0.323607
-0.352562
-0.379557
-0.404528
-0.427414
-0.44816
-0.466711
-0.483015
-0.497019
-0.508662
-0.517864
-0.524514
-0.528498
-0.529799
-0.528498
-0.524514
-0.517864
-0.508662
-0.497019
-0.483015
-0.466711
-0.44816
-0.427414
-0.404528
-0.379557
-0.352562
-0.323607
-0.292763
-0.2601
-0.225698
-0.189635
-0.151998
-0.112873