VARIABLES="X","Y","Density","Velocity_x","Velocity_y","Pressure"
ZONE T="Yeethaw"
Nodes=1056, Elements=1024, ZONETYPE=FEQuadrilateral
DATAPACKING=BLOCK
VARLOCATION=([3,4,5,6]=CELLCENTERED) 
-0.0153952
0.01481
0.062099
0.124489
0.19975
0.285385
0.378675
0.4767
0.576338
0.67425
0.76688
0.850498
0.921316
0.975662
1.01019
1.02213
1.01019
0.975662
0.921316
0.850498
0.76688
0.67425
0.576338
0.4767
0.378675
0.285385
0.19975
0.124489
0.062099
0.01481
-0.0153952
-0.0591159
-0.0258754
0.026093
0.0946675
0.177364
0.271324
0.373397
0.480204
0.588178
0.693577
0.79252
0.881052
0.955278
1.01157
1.04684
1.05888
1.04684
1.01157
0.955278
0.881052
0.79252
0.693577
0.588178
0.480204
0.373397
0.271324
0.177364
0.0946675
0.026093
-0.0258754
-0.0591159
-0.123088
-0.0857193
-0.0272733
0.0498866
0.142932
0.248558
0.363093
0.4826
0.602955
0.719899
0.829095
0.926226
1.00715
1.06812
1.10609
1.11899
1.10609
1.06812
1.00715
0.926226
0.829095
0.719899
0.602955
0.4826
0.363093
0.248558
0.142932
0.0498866
-0.0272733
-0.0857193
-0.123088
-0.209938
-0.167209
-0.100235
-0.0117152
0.0950704
0.216253
0.347516
0.484231
0.621571
0.754602
0.878374
0.988043
1.07905
1.14736
1.18977
1.20416
1.18977
1.14736
1.07905
0.988043
0.878374
0.754602
0.621571
0.484231
0.347516
0.216253
0.0950704
-0.0117152
-0.100235
-0.167209
-0.209938
-0.323149
-0.273615
-0.195718
-0.0925921
0.0319073
0.173205
0.32618
0.485337
0.644966
0.799266
0.942478
1.06904
1.17379
1.25224
1.30085
1.31733
1.30085
1.25224
1.17379
1.06904
0.942478
0.799266
0.644966
0.485337
0.32618
0.173205
0.0319073
-0.0925921
-0.195718
-0.273615
-0.323149
-0.467199
-0.409136
-0.317482
-0.195911
-0.0490022
0.117791
0.298345
0.486087
0.674193
0.855768
1.02401
1.17243
1.29505
1.38673
1.44346
1.46268
1.44346
1.38673
1.29505
1.17243
1.02401
0.855768
0.674193
0.486087
0.298345
0.117791
-0.0490022
-0.195911
-0.317482
-0.409136
-0.467199
-0.64773
-0.579073
-0.470278
-0.32569
-0.150782
0.0479014
0.262998
0.486594
0.710482
0.926391
1.12621
1.30225
1.4475
1.55596
1.62303
1.64573
1.62303
1.55596
1.4475
1.30225
1.12621
0.926391
0.710482
0.486594
0.262998
0.0479014
-0.150782
-0.32569
-0.470278
-0.579073
-0.64773
-0.87178
-0.790042
-0.660045
-0.48696
-0.277362
-0.0391396
0.218816
0.486936
0.755299
1.01393
1.25307
1.46355
1.63702
1.76646
1.84642
1.87349
1.84642
1.76646
1.63702
1.46355
1.25307
1.01393
0.755299
0.486936
0.218816
-0.0391396
-0.277362
-0.48696
-0.660045
-0.790042
-0.87178
-1.14805
-1.05023
-0.89414
-0.685963
-0.43363
-0.146678
0.164123
0.487167
0.810421
1.1218
1.40953
1.66256
1.87096
2.02632
2.12226
2.15471
2.12226
2.02632
1.87096
1.66256
1.40953
1.1218
0.810421
0.487167
0.164123
-0.146678
-0.43363
-0.685963
-0.89414
-1.05023
-1.14805
-1.48726
-1.36972
-1.18163
-0.930401
-0.625624
-0.278857
0.0968256
0.487323
0.878007
1.2542
1.60165
1.90701
2.15833
2.3456
2.46117
2.50025
2.46117
2.3456
2.15833
1.90701
1.60165
1.2542
0.878007
0.487323
0.0968256
-0.278857
-0.625624
-0.930401
-1.18163
-1.36972
-1.48726
-1.90254
-1.76089
-1.53364
-1.22973
-0.860765
-0.440779
0.0143376
0.487429
0.960689
1.41627
1.83687
2.20634
2.51027
2.73661
2.87625
2.92346
2.87625
2.73661
2.51027
2.20634
1.83687
1.41627
0.960689
0.487429
0.0143376
-0.440779
-0.860765
-1.22973
-1.53364
-1.76089
-1.90254
-2.40997
-2.23886
-1.9638
-1.59552
-1.14814
-0.638698
-0.0865211
0.4875
1.06168
1.61429
2.12431
2.57214
2.94037
3.21449
3.38355
3.4407
3.38355
3.21449
2.94037
2.57214
2.12431
1.61429
1.06168
0.4875
-0.0865211
-0.638698
-1.14814
-1.59552
-1.9638
-2.23886
-2.40997
-3.02918
-2.82215
-2.48873
-2.04194
-1.49887
-0.880264
-0.209644
0.487548
1.18489
1.85592
2.47507
3.01854
3.46527
3.79771
4.00268
4.07195
4.00268
3.79771
3.46527
3.01854
2.47507
1.85592
1.18489
0.487548
-0.209644
-0.880264
-1.49887
-2.04194
-2.48873
-2.82215
-3.02918
-3.78414
-3.53331
-3.12876
-2.58623
-1.92651
-1.17482
-0.359787
0.48758
1.33509
2.15052
2.90273
3.56283
4.10527
4.50882
4.75759
4.84164
4.75759
4.50882
4.10527
3.56283
2.90273
2.15052
1.33509
0.48758
-0.359787
-1.17482
-1.92651
-2.58623
-3.12876
-3.53331
-3.78414
-4.70403
-4.39985
-3.90863
-3.24946
-2.4476
-1.53374
-0.542755
0.487602
1.5181
2.50947
3.42383
4.22605
4.88511
5.37533
5.67745
5.77952
5.67745
5.37533
4.88511
4.22605
3.42383
2.50947
1.5181
0.487602
-0.542755
-1.53374
-2.4476
-3.24946
-3.90863
-4.39985
-4.70403
-5.82446
-5.45528
-4.85851
-4.05727
-3.0823
-1.97093
-0.765622
0.487616
1.74099
2.94668
4.05853
5.03386
5.83497
6.43074
6.79786
6.92188
6.79786
6.43074
5.83497
5.03386
4.05853
2.94668
1.74099
0.487616
-0.765622
-1.97093
-3.0823
-4.05727
-4.85851
-5.45528
-5.82446
-7.18874
-6.74044
-6.01514
-5.04092
-3.85515
-2.50328
-1.03701
0.487626
2.0124
3.47903
4.83138
6.01749
6.99158
7.71588
8.16215
8.31289
8.16215
7.71588
6.99158
6.01749
4.83138
3.47903
2.0124
0.487626
-1.03701
-2.50328
-3.85515
-5.04092
-6.01514
-6.74044
-7.18874
-8.84966
-8.30502
-7.42325
-6.23843
-4.79604
-3.15138
-1.3674
0.487633
2.3428
4.12714
5.77227
7.21499
8.39968
9.28045
9.82308
10.0064
9.82308
9.28045
8.39968
7.21499
5.77227
4.12714
2.3428
0.487633
-1.3674
-3.15138
-4.79604
-6.23843
-7.42325
-8.30502
-8.84966
-10.8714
-10.2095
-9.13731
-7.69614
-5.94137
-3.9403
-1.76959
0.487638
2.745
4.91606
6.91759
8.67268
10.1137
11.185
11.8449
12.0678
11.8449
11.185
10.1137
8.67268
6.91759
4.91606
2.745
0.487638
-1.76959
-3.9403
-5.94137
-7.69614
-9.13731
-10.2095
-10.8714
-13.3323
-12.5277
-11.2236
-9.47042
-7.33543
-4.90055
-2.25912
0.487641
3.23453
5.8763
8.31163
10.4469
12.2
13.5031
14.3058
14.5769
14.3058
13.5031
12.2
10.4469
8.31163
5.8763
3.23453
0.487641
-2.25912
-4.90055
-7.33543
-9.47042
-11.2236
-12.5277
-13.3323
-16.3274
-15.3491
-13.7628
-11.6299
-9.03214
-6.06927
-2.85493
0.487643
3.83034
7.04502
10.0083
12.6064
14.7392
16.3245
17.3009
17.6307
17.3009
16.3245
14.7392
12.6064
10.0083
7.04502
3.83034
0.487643
-2.85493
-6.06927
-9.03214
-11.6299
-13.7628
-15.3491
-16.3274
-19.9726
-18.7828
-16.8532
-14.2581
-11.0971
-7.49166
-3.58007
0.487644
4.55548
8.4674
12.0733
15.2345
17.8295
19.7582
20.9462
21.3473
20.9462
19.7582
17.8295
15.2345
12.0733
8.4674
4.55548
0.487644
-3.58007
-7.49166
-11.0971
-14.2581
-16.8532
-18.7828
-19.9726
-24.4089
-22.9618
-20.6143
-17.4566
-13.6102
-9.22275
-4.46257
0.487645
5.43798
10.1985
14.5864
18.4331
21.5906
23.9372
25.3825
25.8705
25.3825
23.9372
21.5906
18.4331
14.5864
10.1985
5.43798
0.487645
-4.46257
-9.22275
-13.6102
-17.4566
-20.6143
-22.9618
-24.4089
-29.8078
-28.0476
-25.1915
-21.3493
-16.6687
-11.3295
-5.53657
0.487646
6.51197
12.3052
17.6448
22.3257
26.1677
29.023
30.7815
31.3753
30.7815
29.023
26.1677
22.3257
17.6448
12.3052
6.51197
0.487646
-5.53657
-11.3295
-16.6687
-21.3493
-25.1915
-28.0476
-29.8078
-36.3782
-34.2369
-30.7618
-26.0866
-20.3908
-13.8933
-6.84362
0.487646
7.81901
14.869
21.3669
27.0629
31.738
35.2123
37.352
38.0745
37.352
35.2123
31.738
27.0629
21.3669
14.869
7.81901
0.487646
-6.84362
-13.8933
-20.3908
-26.0866
-30.7618
-34.2369
-36.3782
-44.3742
-41.7692
-37.5408
-31.8517
-24.9205
-17.0135
-8.43425
0.487646
9.40964
17.9891
25.8965
32.8279
38.5169
42.7446
45.3481
46.2273
45.3481
42.7446
38.5169
32.8279
25.8965
17.9891
9.40964
0.487646
-8.43425
-17.0135
-24.9205
-31.8517
-37.5408
-41.7692
-44.3742
-54.1051
-50.9357
-45.7906
-38.8677
-30.433
-20.8106
-10.37
0.487647
11.3454
21.7862
31.4089
39.8438
46.7666
51.911
55.0791
56.1489
55.0791
51.911
46.7666
39.8438
31.4089
21.7862
11.3454
0.487647
-10.37
-20.8106
-30.433
-38.8677
-45.7906
-50.9357
-54.1051
-65.9472
-62.0909
-55.8302
-47.4059
-37.1415
-25.4315
-12.7257
0.487647
13.7011
26.4071
38.1173
48.3819
56.8062
63.0663
66.9214
68.2231
66.9214
63.0663
56.8062
48.3819
38.1173
26.4071
13.7011
0.487647
-12.7257
-25.4315
-37.1415
-47.4059
-55.8302
-62.0909
-65.9472
-80.3585
-75.6664
-68.0481
-57.7965
-45.3054
-31.055
-15.5926
0.487647
16.5679
32.0305
46.2812
58.7724
69.0239
76.6418
81.3329
82.9169
81.3329
76.6418
69.0239
58.7724
46.2812
32.0305
16.5679
0.487647
-15.5926
-31.055
-45.3054
-57.7965
-68.0481
-75.6664
-80.3585
-97.8965
-92.1872
-82.9167
-70.4414
-55.2406
-37.8985
-19.0814
0.487647
20.0567
38.8739
56.2162
71.4171
83.8924
93.1625
98.8711
100.799
98.8711
93.1625
83.8924
71.4171
56.2162
38.8739
20.0567
0.487647
-19.0814
-37.8985
-55.2406
-70.4414
-82.9167
-92.1872
-97.8965
-119.239
-112.292
-101.011
-85.8297
-67.3312
-46.2267
-23.3271
0.487647
24.3024
47.2021
68.3067
86.8052
101.987
113.268
120.214
122.56
120.214
113.268
101.987
86.8052
68.3067
47.2021
24.3024
0.487647
-23.3271
-46.2267
-67.3312
-85.8297
-101.011
-112.292
-119.239
0.00993468
0.0381841
0.0824283
0.140734
0.211071
0.291254
0.378939
0.471604
0.566501
0.66061
0.750605
0.832879
0.903637
0.959052
0.995417
1.00893
0.995417
0.959052
0.903637
0.832879
0.750605
0.66061
0.566501
0.471604
0.378939
0.291254
0.211071
0.140734
0.0824283
0.0381841
0.00993468
1.93586e-17
-0.0260422
-0.0708705
-0.136303
-0.225011
-0.340554
-0.487507
-0.671632
-0.900109
-1.18182
-1.52769
-1.95111
-2.46849
-3.09983
-3.86957
-4.80748
-5.94984
-7.34084
-9.03428
-11.0956
-13.6047
-16.6584
-20.375
-24.8981
-30.4028
-37.1018
-45.2544
-55.1758
-67.2497
-81.9432
-99.8245
-121.585
-148.067
-145.213
-136.759
-123.031
-104.557
-82.045
-56.3618
-28.494
0.487647
29.4693
57.3371
83.0203
105.532
124.007
137.734
146.188
149.043
146.188
137.734
124.007
105.532
83.0203
57.3371
29.4693
0.487647
-28.494
-56.3618
-82.045
-104.557
-123.031
-136.759
-145.213
0.0354074
0.0676589
0.0957948
0.11902
0.136632
0.148185
0.153548
0.152874
0.146532
0.13503
0.118977
0.0990855
0.0762139
0.0513848
0.0257012
0
-0.0257012
-0.0513848
-0.0762139
-0.0990855
-0.118977
-0.13503
-0.146532
-0.152874
-0.153548
-0.148185
-0.136632
-0.11902
-0.0957948
-0.0676589
-0.0354074
0.0551121
0.106389
0.152126
0.190923
0.221571
0.243195
0.255296
0.257741
0.250696
0.234574
0.210004
0.177847
0.139242
0.0956175
0.048632
0
-0.048632
-0.0956175
-0.139242
-0.177847
-0.210004
-0.234574
-0.250696
-0.257741
-0.255296
-0.243195
-0.221571
-0.190923
-0.152126
-0.106389
-0.0551121
0.0769741
0.149375
0.214679
0.27076
0.315792
0.348381
0.367615
0.373056
0.364694
0.3429
0.308411
0.262352
0.206281
0.142205
0.0725414
0
-0.0725414
-0.142205
-0.206281
-0.262352
-0.308411
-0.3429
-0.364694
-0.373056
-0.367615
-0.348381
-0.315792
-0.27076
-0.214679
-0.149375
-0.0769741
0.101857
0.198274
0.285806
0.361484
0.422751
0.467604
0.494656
0.503144
0.492892
0.464279
0.418229
0.356239
0.280415
0.193486
0.0987608
0
-0.0987608
-0.193486
-0.280415
-0.356239
-0.418229
-0.464279
-0.492892
-0.503144
-0.494656
-0.467604
-0.422751
-0.361484
-0.285806
-0.198274
-0.101857
0.130712
0.254946
0.368194
0.466502
0.546455
0.605337
0.641215
0.652962
0.640242
0.603485
0.543878
0.463396
0.364821
0.251745
0.128501
0
-0.128501
-0.251745
-0.364821
-0.463396
-0.543878
-0.603485
-0.640242
-0.652962
-0.641215
-0.605337
-0.546455
-0.466502
-0.368194
-0.254946
-0.130712
0.164638
0.321549
0.464973
0.5898
0.691602
0.766821
0.812887
0.828265
0.812454
0.765969
0.690344
0.588139
0.462957
0.319411
0.163019
0
-0.163019
-0.319411
-0.462957
-0.588139
-0.690344
-0.765969
-0.812454
-0.828265
-0.812887
-0.766821
-0.691602
-0.5898
-0.464973
-0.321549
-0.164638
0.204932
0.400628
0.579842
0.736093
0.863744
0.958242
1.01627
1.03582
1.0162
0.958069
0.863378
0.735407
0.57874
0.399204
0.20371
0
-0.20371
-0.399204
-0.57874
-0.735407
-0.863378
-0.958069
-1.0162
-1.03582
-1.01627
-0.958242
-0.863744
-0.736093
-0.579842
-0.400628
-0.204932
0.253137
0.495216
0.71721
0.910997
1.0695
1.18697
1.2592
1.28364
1.25938
1.18725
1.06973
0.910968
0.716724
0.494272
0.252183
0
-0.252183
-0.494272
-0.716724
-0.910968
-1.06973
-1.18725
-1.25938
-1.28364
-1.2592
-1.18697
-1.0695
-0.910997
-0.71721
-0.495216
-0.253137
0.311108
0.608951
0.882365
1.12125
1.31679
1.46182
1.55107
1.5813
1.55142
1.46242
1.31743
1.12166
0.882293
0.608332
0.310334
0
-0.310334
-0.608332
-0.882293
-1.12166
-1.31743
-1.46242
-1.55142
-1.5813
-1.55107
-1.46182
-1.31679
-1.12125
-0.882365
-0.608951
-0.311108
0.381078
0.74622
1.08167
1.37496
1.61517
1.79341
1.90314
1.94034
1.9036
1.79422
1.61608
1.37567
1.08188
0.745819
0.380427
0
-0.380427
-0.745819
-1.08188
-1.37567
-1.61608
-1.79422
-1.9036
-1.94034
-1.90314
-1.79341
-1.61517
-1.37496
-1.08167
-0.74622
-0.381078
0.465749
0.91232
1.32284
1.68193
1.97616
2.19456
2.32904
2.37462
2.32958
2.1955
1.97725
1.68284
1.32323
0.912066
0.46518
0
-0.46518
-0.912066
-1.32323
-1.68284
-1.97725
-2.1955
-2.32958
-2.37462
-2.32904
-2.19456
-1.97616
-1.68193
-1.32284
-0.91232
-0.465749
0.56839
1.11367
1.61517
2.05401
2.41371
2.68077
2.84523
2.90094
2.84581
2.68181
2.41493
2.05506
1.61568
1.11351
0.567878
0
-0.567878
-1.11351
-1.61568
-2.05506
-2.41493
-2.68181
-2.84581
-2.90094
-2.84523
-2.68077
-2.41371
-2.05401
-1.61517
-1.11367
-0.56839
0.692968
1.35805
1.96996
2.5056
2.94475
3.27085
3.47167
3.53968
3.47229
3.27194
2.94604
2.50673
1.97057
1.35796
0.692495
0
-0.692495
-1.35796
-1.97057
-2.50673
-2.94604
-3.27194
-3.47229
-3.53968
-3.47167
-3.27085
-2.94475
-2.5056
-1.96996
-1.35805
-0.692968
0.8443
1.65491
2.40095
3.05416
3.5898
3.98761
4.2326
4.31552
4.23323
3.98874
3.59114
3.05534
2.4016
1.65486
0.843854
0
-0.843854
-1.65486
-2.4016
-3.05534
-3.59114
-3.98874
-4.23323
-4.31552
-4.2326
-3.98761
-3.5898
-3.05416
-2.40095
-1.65491
-0.8443
1.02824
2.01572
2.92479
3.72089
4.37381
4.85877
5.15743
5.25848
5.15808
4.85992
4.37518
3.72211
2.92548
2.01571
1.02781
0
-1.02781
-2.01571
-2.92548
-3.72211
-4.37518
-4.85992
-5.15808
-5.25848
-5.15743
-4.85877
-4.37381
-3.72089
-2.92479
-2.01572
-1.02824
1.25189
2.45445
3.56173
4.53159
5.32711
5.91803
6.28195
6.40503
6.2826
5.9192
5.32849
4.53283
3.56244
2.45446
1.25148
0
-1.25148
-2.45446
-3.56244
-4.53283
-5.32849
-5.9192
-6.2826
-6.40503
-6.28195
-5.91803
-5.32711
-4.53159
-3.56173
-2.45445
-1.25189
1.52392
2.98805
4.33643
5.51761
6.48656
7.20636
7.64963
7.79952
7.65029
7.20752
6.48795
5.51885
4.33715
2.98808
1.52352
0
-1.52352
-2.98808
-4.33715
-5.51885
-6.48795
-7.20752
-7.65029
-7.79952
-7.64963
-7.20636
-6.48656
-5.51761
-4.33643
-2.98805
-1.52392
1.85483
3.63718
5.27883
6.71708
7.897
8.77358
9.31339
9.49588
9.31404
8.77474
7.89839
6.71832
5.27955
3.63721
1.85444
0
-1.85444
-3.63721
-5.27955
-6.71832
-7.89839
-8.77474
-9.31404
-9.49588
-9.31339
-8.77358
-7.897
-6.71708
-5.27883
-3.63718
-1.85483
2.25743
4.42692
6.42538
8.17639
9.61299
10.6803
11.3376
11.5597
11.3382
10.6815
9.61437
8.17762
6.4261
4.42696
2.25705
0
-2.25705
-4.42696
-6.4261
-8.17762
-9.61437
-10.6815
-11.3382
-11.5597
-11.3376
-10.6803
-9.61299
-8.17639
-6.42538
-4.42692
-2.25743
2.74728
5.38783
7.82044
9.95199
11.7009
13.0003
13.8005
14.0709
13.8011
13.0014
11.7023
9.9532
7.82115
5.38787
2.74691
0
-2.74691
-5.38787
-7.82115
-9.9532
-11.7023
-13.0014
-13.8011
-14.0709
-13.8005
-13.0003
-11.7009
-9.95199
-7.82044
-5.38783
-2.74728
3.34335
6.55708
9.51795
12.1125
14.2415
15.8233
16.7973
17.1264
16.7979
15.8244
14.2428
12.1137
9.51865
6.55712
3.34298
0
-3.34298
-6.55712
-9.51865
-12.1137
-14.2428
-15.8244
-16.7979
-17.1264
-16.7973
-15.8233
-14.2415
-12.1125
-9.51795
-6.55708
-3.34335
4.06866
7.97987
11.5836
14.7416
17.333
19.2584
20.4441
20.8446
20.4447
19.2595
17.3343
14.7428
11.5843
7.97992
4.06831
0
-4.06831
-7.97992
-11.5843
-14.7428
-17.3343
-19.2595
-20.4447
-20.8446
-20.4441
-19.2584
-17.333
-14.7416
-11.5836
-7.97987
-4.06866
4.9513
9.71126
14.0972
17.9409
21.095
23.4386
24.8817
25.3692
24.8823
23.4396
21.0963
17.942
14.0979
9.7113
4.95096
0
-4.95096
-9.7113
-14.0979
-17.942
-21.0963
-23.4396
-24.8823
-25.3692
-24.8817
-23.4386
-21.095
-17.9409
-14.0972
-9.71126
-4.9513
6.02538
11.8182
17.156
21.8342
25.673
28.5254
30.2819
30.8752
30.2825
28.5264
25.6742
21.8352
17.1567
11.8182
6.02505
0
-6.02505
-11.8182
-17.1567
-21.8352
-25.6742
-28.5264
-30.2825
-30.8752
-30.2819
-28.5254
-25.673
-21.8342
-17.156
-11.8182
-6.02538
7.33245
14.3822
20.8784
26.5719
31.2441
34.7158
36.8536
37.5756
36.8541
34.7167
31.2453
26.5729
20.879
14.3822
7.33214
0
-7.33214
-14.3822
-20.879
-26.5729
-31.2453
-34.7167
-36.8541
-37.5756
-36.8536
-34.7158
-31.2441
-26.5719
-20.8784
-14.3822
-7.33245
8.92306
17.5023
25.4083
32.3375
38.0238
42.249
44.8508
45.7295
44.8513
42.2498
38.0248
32.3384
25.4089
17.5024
8.92278
0
-8.92278
-17.5024
-25.4089
-32.3384
-38.0248
-42.2498
-44.8513
-45.7295
-44.8508
-42.249
-38.0238
-32.3375
-25.4083
-17.5023
-8.92306
10.8587
21.2994
30.9209
39.3538
46.2742
51.4164
54.583
55.6523
54.5834
51.4172
46.2751
39.3546
30.9214
21.2994
10.8585
0
-10.8585
-21.2994
-30.9214
-39.3546
-46.2751
-51.4172
-54.5834
-55.6523
-54.583
-51.4164
-46.2742
-39.3538
-30.9209
-21.2994
-10.8587
13.2144
25.9202
37.6294
47.8922
56.3145
62.5727
66.4264
67.7278
66.4268
62.5733
56.3153
47.893
37.6298
25.9202
13.2141
0
-13.2141
-25.9202
-37.6298
-47.893
-56.3153
-62.5733
-66.4268
-67.7278
-66.4264
-62.5727
-56.3145
-47.8922
-37.6294
-25.9202
-13.2144
16.081
31.5435
45.7933
58.2831
68.5329
76.1492
80.8393
82.423
80.8396
76.1498
68.5336
58.2837
45.7937
31.5435
16.0808
0
-16.0808
-31.5435
-45.7937
-58.2837
-68.5336
-76.1498
-80.8396
-82.423
-80.8393
-76.1492
-68.5329
-58.2831
-45.7933
-31.5435
-16.081
19.5696
38.3867
55.7283
70.9282
83.4022
92.6712
98.379
100.306
98.3792
92.6716
83.4027
70.9286
55.7286
38.3867
19.5695
0
-19.5695
-38.3867
-55.7286
-70.9286
-83.4027
-92.6716
-98.3792
-100.306
-98.379
-92.6712
-83.4022
-70.9282
-55.7283
-38.3867
-19.5696
23.815
46.7146
67.8188
86.3166
101.497
112.778
119.724
122.069
119.724
112.778
101.498
86.3168
67.8189
46.7146
23.8149
0
-23.8149
-46.7146
-67.8189
-86.3168
-101.498
-112.778
-119.724
-122.069
-119.724
-112.778
-101.497
-86.3166
-67.8188
-46.7146
-23.815
0.016984
0.031625
0.0435724
0.0524622
0.0579696
0.0600005
0.0587451
0.0546415
0.0482897
0.040361
0.03154
0.0225172
0.0140234
0.00686384
0.00190122
0
-0.00190122
-0.00686384
-0.0140234
-0.0225172
-0.03154
-0.040361
-0.0482897
-0.0546415
-0.0587451
-0.0600005
-0.0579696
-0.0524622
-0.0435724
-0.031625
-0.016984
0
0
0
0
0
0
0
0
0
0
0
0
0
0
0
0
0
0
0
0
0
0
0
0
0
0
0
0
0
0
0
0
0
-28.9815
-56.8492
-82.5322
-105.044
-123.518
-137.246
-145.7
-148.554
-145.7
-137.246
-123.518
-105.044
-82.5322
-56.8492
-28.9815
0
28.9815
56.8492
82.5322
105.044
123.518
137.246
145.7
148.554
145.7
137.246
123.518
105.044
82.5322
56.8492
28.9815
1.22759
1.14168
1.09466
1.06113
1.03455
1.01331
0.995905
0.982104
0.972317
0.965287
0.96
0.955813
0.952477
0.95045
0.951294
0.963295
0.963295
0.951294
0.95045
0.952477
0.955813
0.96
0.965287
0.972317
0.982104
0.995905
1.01331
1.03455
1.06113
1.09466
1.14168
1.22759
0.999705
0.999924
0.999968
1.00023
1.00078
1.00048
0.999604
0.998501
0.997783
0.997372
0.99708
0.99686
0.996706
0.996523
0.996318
0.996888
0.996888
0.996318
0.996523
0.996706
0.99686
0.99708
0.997372
0.997783
0.998501
0.999604
1.00048
1.00078
1.00023
0.999968
0.999924
0.999705
1
1
1
1
1
1
1
1
1
1
1
1
1
1
1
1
1
1
1
1
1
1
1
1
1
1
1
1
1
1
1
1
1
1
1
1
1
1
1
1
1
1
1
1
1
1
1
1
1
1
1
1
1
1
1
1
1
1
1
1
1
1
1
1
1
1
1
1
1
1
1
1
1
1
1
1
1
1
1
1
1
1
1
1
1
1
1
1
1
1
1
1
1
1
1
1
1
1
1
1
1
1
1
1
1
1
1
1
1
1
1
1
1
1
1
1
1
1
1
1
1
1
1
1
1
1
1
1
1
1
1
1
1
1
1
1
1
1
1
1
1
1
1
1
1
1
1
1
1
1
1
1
1
1
1
1
1
1
1
1
1
1
1
1
1
1
1
1
1
1
1
1
1
1
1
1
1
1
1
1
1
1
1
1
1
1
1
1
1
1
1
1
1
1
1
1
1
1
1
1
1
1
1
1
1
1
1
1
1
1
1
1
1
1
1
1
1
1
1
1
1
1
1
1
1
1
1
1
1
1
1
1
1
1
1
1
1
1
1
1
1
1
1
1
1
1
1
1
1
1
1
1
1
1
1
1
1
1
1
1
1
1
1
1
1
1
1
1
1
1
1
1
1
1
1
1
1
1
1
1
1
1
1
1
1
1
1
1
1
1
1
1
1
1
1
1
1
1
1
1
1
1
1
1
1
1
1
1
1
1
1
1
1
1
1
1
1
1
1
1
1
1
1
1
1
1
1
1
1
1
1
1
1
1
1
1
1
1
1
1
1
1
1
1
1
1
1
1
1
1
1
1
1
1
1
1
1
1
1
1
1
1
1
1
1
1
1
1
1
1
1
1
1
1
1
1
1
1
1
1
1
1
1
1
1
1
1
1
1
1
1
1
1
1
1
1
1
1
1
1
1
1
1
1
1
1
1
1
1
1
1
1
1
1
1
1
1
1
1
1
1
1
1
1
1
1
1
1
1
1
1
1
1
1
1
1
1
1
1
1
1
1
1
1
1
1
1
1
1
1
1
1
1
1
1
1
1
1
1
1
1
1
1
1
1
1
1
1
1
1
1
1
1
1
1
1
1
1
1
1
1
1
1
1
1
1
1
1
1
1
1
1
1
1
1
1
1
1
1
1
1
1
1
1
1
1
1
1
1
1
1
1
1
1
1
1
1
1
1
1
1
1
1
1
1
1
1
1
1
1
1
1
1
1
1
1
1
1
1
1
1
1
1
1
1
1
1
1
1
1
1
1
1
1
1
1
1
1
1
1
1
1
1
1
1
1
1
1
1
1
1
1
1
1
1
1
1
1
1
1
1
1
1
1
1
1
1
1
1
1
1
1
1
1
1
1
1
1
1
1
1
1
1
1
1
1
1
1
1
1
1
1
1
1
1
1
1
1
1
1
1
1
1
1
1
1
1
1
1
1
1
1
1
1
1
1
1
1
1
1
1
1
1
1
1
1
1
1
1
1
1
1
1
1
1
1
1
1
1
1
1
1
1
1
1
1
1
1
1
1
1
1
1
1
1
1
1
1
1
1
1
1
1
1
1
1
1
1
1
1
1
1
1
1
1
1
1
1
1
1
1
1
1
1
1
1
1
1
1
1
1
1
1
1
1
1
1
1
1
1
1
1
1
1
1
1
1
1
1
1
1
1
1
1
1
1
1
1
1
1
1
1
1
1
1
1
1
1
1
1
1
1
1
1
1
1
1
1
1
1
1
1
1
1
1
1
1
1
1
1
1
1
1
1
1
1
1
1
1
1
1
1
1
1
1
1
1
1
1
1
1
1
1
1
1
1
1
1
1
1
1
1
1
1
1
1
1
1
1
1
1
1
1
1
1
1
1
1
1
1
1
1
1
1
1
1
1
1
1
1
1
1
1
1
1
1
1
1
1
1
1
1
1
1
1
1
1
1
1
1
1
1
1
1
1
1
1
1
1
1
1
1
1
1
1
1
1
1
1
1
1
1
1
1
1
1
1
1
1
1
1
1
1
1
1
1
1
1
1
1
1
1
1
1
1
1
1
1
1
1
1
1
1
1
1
1
1
1
1
1
1
1
1
1
1
1
1
1
1
1
1
1
1
1
1
1
1
1
1
1
1
1
1
1
1
1
1
1
1
1
1
1
1
1
1
1
1
1
1
1
1
1
1
1
1
1
1
1
1
1
1.58992
1.72697
1.75893
1.76981
1.77435
1.77594
1.77602
1.77528
1.7742
1.77327
1.77248
1.7718
1.7712
1.7707
1.77035
1.77055
1.77055
1.77035
1.7707
1.7712
1.7718
1.77248
1.77327
1.7742
1.77528
1.77602
1.77594
1.77435
1.76981
1.75893
1.72697
1.58992
1.77463
1.7748
1.77482
1.77477
1.77471
1.77478
1.77484
1.77482
1.77472
1.7746
1.77444
1.77426
1.77403
1.77375
1.77346
1.77337
1.77337
1.77346
1.77375
1.77403
1.77426
1.77444
1.7746
1.77472
1.77482
1.77484
1.77478
1.77471
1.77477
1.77482
1.7748
1.77463
1.77482
1.77482
1.77482
1.77482
1.77482
1.77482
1.77482
1.77482
1.77482
1.77482
1.77482
1.77482
1.77482
1.77482
1.77482
1.77482
1.77482
1.77482
1.77482
1.77482
1.77482
1.77482
1.77482
1.77482
1.77482
1.77482
1.77482
1.77482
1.77482
1.77482
1.77482
1.77482
1.77482
1.77482
1.77482
1.77482
1.77482
1.77482
1.77482
1.77482
1.77482
1.77482
1.77482
1.77482
1.77482
1.77482
1.77482
1.77482
1.77482
1.77482
1.77482
1.77482
1.77482
1.77482
1.77482
1.77482
1.77482
1.77482
1.77482
1.77482
1.77482
1.77482
1.77482
1.77482
1.77482
1.77482
1.77482
1.77482
1.77482
1.77482
1.77482
1.77482
1.77482
1.77482
1.77482
1.77482
1.77482
1.77482
1.77482
1.77482
1.77482
1.77482
1.77482
1.77482
1.77482
1.77482
1.77482
1.77482
1.77482
1.77482
1.77482
1.77482
1.77482
1.77482
1.77482
1.77482
1.77482
1.77482
1.77482
1.77482
1.77482
1.77482
1.77482
1.77482
1.77482
1.77482
1.77482
1.77482
1.77482
1.77482
1.77482
1.77482
1.77482
1.77482
1.77482
1.77482
1.77482
1.77482
1.77482
1.77482
1.77482
1.77482
1.77482
1.77482
1.77482
1.77482
1.77482
1.77482
1.77482
1.77482
1.77482
1.77482
1.77482
1.77482
1.77482
1.77482
1.77482
1.77482
1.77482
1.77482
1.77482
1.77482
1.77482
1.77482
1.77482
1.77482
1.77482
1.77482
1.77482
1.77482
1.77482
1.77482
1.77482
1.77482
1.77482
1.77482
1.77482
1.77482
1.77482
1.77482
1.77482
1.77482
1.77482
1.77482
1.77482
1.77482
1.77482
1.77482
1.77482
1.77482
1.77482
1.77482
1.77482
1.77482
1.77482
1.77482
1.77482
1.77482
1.77482
1.77482
1.77482
1.77482
1.77482
1.77482
1.77482
1.77482
1.77482
1.77482
1.77482
1.77482
1.77482
1.77482
1.77482
1.77482
1.77482
1.77482
1.77482
1.77482
1.77482
1.77482
1.77482
1.77482
1.77482
1.77482
1.77482
1.77482
1.77482
1.77482
1.77482
1.77482
1.77482
1.77482
1.77482
1.77482
1.77482
1.77482
1.77482
1.77482
1.77482
1.77482
1.77482
1.77482
1.77482
1.77482
1.77482
1.77482
1.77482
1.77482
1.77482
1.77482
1.77482
1.77482
1.77482
1.77482
1.77482
1.77482
1.77482
1.77482
1.77482
1.77482
1.77482
1.77482
1.77482
1.77482
1.77482
1.77482
1.77482
1.77482
1.77482
1.77482
1.77482
1.77482
1.77482
1.77482
1.77482
1.77482
1.77482
1.77482
1.77482
1.77482
1.77482
1.77482
1.77482
1.77482
1.77482
1.77482
1.77482
1.77482
1.77482
1.77482
1.77482
1.77482
1.77482
1.77482
1.77482
1.77482
1.77482
1.77482
1.77482
1.77482
1.77482
1.77482
1.77482
1.77482
1.77482
1.77482
1.77482
1.77482
1.77482
1.77482
1.77482
1.77482
1.77482
1.77482
1.77482
1.77482
1.77482
1.77482
1.77482
1.77482
1.77482
1.77482
1.77482
1.77482
1.77482
1.77482
1.77482
1.77482
1.77482
1.77482
1.77482
1.77482
1.77482
1.77482
1.77482
1.77482
1.77482
1.77482
1.77482
1.77482
1.77482
1.77482
1.77482
1.77482
1.77482
1.77482
1.77482
1.77482
1.77482
1.77482
1.77482
1.77482
1.77482
1.77482
1.77482
1.77482
1.77482
1.77482
1.77482
1.77482
1.77482
1.77482
1.77482
1.77482
1.77482
1.77482
1.77482
1.77482
1.77482
1.77482
1.77482
1.77482
1.77482
1.77482
1.77482
1.77482
1.77482
1.77482
1.77482
1.77482
1.77482
1.77482
1.77482
1.77482
1.77482
1.77482
1.77482
1.77482
1.77482
1.77482
1.77482
1.77482
1.77482
1.77482
1.77482
1.77482
1.77482
1.77482
1.77482
1.77482
1.77482
1.77482
1.77482
1.77482
1.77482
1.77482
1.77482
1.77482
1.77482
1.77482
1.77482
1.77482
1.77482
1.77482
1.77482
1.77482
1.77482
1.77482
1.77482
1.77482
1.77482
1.77482
1.77482
1.77482
1.77482
1.77482
1.77482
1.77482
1.77482
1.77482
1.77482
1.77482
1.77482
1.77482
1.77482
1.77482
1.77482
1.77482
1.77482
1.77482
1.77482
1.77482
1.77482
1.77482
1.77482
1.77482
1.77482
1.77482
1.77482
1.77482
1.77482
1.77482
1.77482
1.77482
1.77482
1.77482
1.77482
1.77482
1.77482
1.77482
1.77482
1.77482
1.77482
1.77482
1.77482
1.77482
1.77482
1.77482
1.77482
1.77482
1.77482
1.77482
1.77482
1.77482
1.77482
1.77482
1.77482
1.77482
1.77482
1.77482
1.77482
1.77482
1.77482
1.77482
1.77482
1.77482
1.77482
1.77482
1.77482
1.77482
1.77482
1.77482
1.77482
1.77482
1.77482
1.77482
1.77482
1.77482
1.77482
1.77482
1.77482
1.77482
1.77482
1.77482
1.77482
1.77482
1.77482
1.77482
1.77482
1.77482
1.77482
1.77482
1.77482
1.77482
1.77482
1.77482
1.77482
1.77482
1.77482
1.77482
1.77482
1.77482
1.77482
1.77482
1.77482
1.77482
1.77482
1.77482
1.77482
1.77482
1.77482
1.77482
1.77482
1.77482
1.77482
1.77482
1.77482
1.77482
1.77482
1.77482
1.77482
1.77482
1.77482
1.77482
1.77482
1.77482
1.77482
1.77482
1.77482
1.77482
1.77482
1.77482
1.77482
1.77482
1.77482
1.77482
1.77482
1.77482
1.77482
1.77482
1.77482
1.77482
1.77482
1.77482
1.77482
1.77482
1.77482
1.77482
1.77482
1.77482
1.77482
1.77482
1.77482
1.77482
1.77482
1.77482
1.77482
1.77482
1.77482
1.77482
1.77482
1.77482
1.77482
1.77482
1.77482
1.77482
1.77482
1.77482
1.77482
1.77482
1.77482
1.77482
1.77482
1.77482
1.77482
1.77482
1.77482
1.77482
1.77482
1.77482
1.77482
1.77482
1.77482
1.77482
1.77482
1.77482
1.77482
1.77482
1.77482
1.77482
1.77482
1.77482
1.77482
1.77482
1.77482
1.77482
1.77482
1.77482
1.77482
1.77482
1.77482
1.77482
1.77482
1.77482
1.77482
1.77482
1.77482
1.77482
1.77482
1.77482
1.77482
1.77482
1.77482
1.77482
1.77482
1.77482
1.77482
1.77482
1.77482
1.77482
1.77482
1.77482
1.77482
1.77482
1.77482
1.77482
1.77482
1.77482
1.77482
1.77482
1.77482
1.77482
1.77482
1.77482
1.77482
1.77482
1.77482
1.77482
1.77482
1.77482
1.77482
1.77482
1.77482
1.77482
1.77482
1.77482
1.77482
1.77482
1.77482
1.77482
1.77482
1.77482
1.77482
1.77482
1.77482
1.77482
1.77482
1.77482
1.77482
1.77482
1.77482
1.77482
1.77482
1.77482
1.77482
1.77482
1.77482
1.77482
1.77482
1.77482
1.77482
1.77482
1.77482
1.77482
1.77482
1.77482
1.77482
1.77482
1.77482
1.77482
1.77482
1.77482
1.77482
1.77482
1.77482
1.77482
1.77482
1.77482
1.77482
1.77482
1.77482
1.77482
1.77482
1.77482
1.77482
1.77482
1.77482
1.77482
1.77482
1.77482
1.77482
1.77482
1.77482
1.77482
1.77482
1.77482
1.77482
1.77482
1.77482
1.77482
1.77482
1.77482
1.77482
1.77482
1.77482
1.77482
1.77482
1.77482
1.77482
1.77482
1.77482
1.77482
1.77482
1.77482
1.77482
1.77482
1.77482
1.77482
1.77482
1.77482
1.77482
1.77482
1.77482
1.77482
1.77482
1.77482
1.77482
1.77482
1.77482
1.77482
1.77482
1.77482
1.77482
1.77482
1.77482
1.77482
1.77482
1.77482
1.77482
1.77482
1.77482
1.77482
1.77482
1.77482
1.77482
1.77482
1.77482
1.77482
1.77482
1.77482
1.77482
1.77482
1.77482
1.77482
1.77482
1.77482
1.77482
1.77482
1.77482
1.77482
1.77482
1.77482
1.77482
1.77482
1.77482
1.77482
1.77482
1.77482
1.77482
1.77482
1.77482
1.77482
1.77482
1.77482
1.77482
1.77482
1.77482
1.77482
1.77482
1.77482
1.77482
1.77482
1.77482
1.77482
1.77482
1.77482
1.77482
1.77482
1.77482
1.77482
1.77482
1.77482
1.77482
1.77482
1.77482
1.77482
1.77482
1.77482
1.77482
1.77482
1.77482
1.77482
1.77482
1.77482
1.77482
1.77482
1.77482
1.77482
1.77482
1.77482
1.77482
1.77482
1.77482
1.77482
1.77482
1.77482
1.77482
1.77482
1.77482
1.77482
1.77482
1.77482
1.77482
1.77482
1.77482
1.77482
1.77482
1.77482
1.77482
1.77482
1.77482
1.77482
1.77482
1.77482
1.77482
1.77482
1.77482
1.77482
1.77482
1.77482
1.77482
1.77482
1.77482
1.77482
1.77482
1.77482
1.77482
1.77482
1.77482
1.77482
1.77482
1.77482
1.77482
1.77482
1.77482
1.77482
1.77482
1.77482
1.77482
1.77482
1.77482
1.77482
1.77482
1.77482
1.77482
1.77482
1.77482
1.77482
1.77482
1.77482
1.77482
1.77482
1.77482
1.77482
1.77482
1.77482
1.77482
1.77482
1.77482
1.77482
1.77482
1.77482
1.77482
1.77482
1.77482
1.77482
1.77482
1.77482
1.77482
1.77482
1.77482
1.77482
1.77482
1.77482
1.77482
1.77482
1.77482
1.77482
1.77482
1.77482
1.77482
1.77482
1.77482
1.77482
1.77482
1.77482
1.77482
1.77482
1.77482
1.77482
1.77482
1.77482
1.77482
1.77482
1.77482
1.77482
1.77482
1.77482
1.77482
1.77482
1.77482
1.77482
1.77482
1.77482
1.77482
1.77482
1.77482
1.77482
1.77482
1.77482
1.77482
1.77482
1.77482
1.77482
1.77482
1.77482
1.77482
1.77482
1.77482
1.77482
1.77482
1.77482
1.77482
1.77482
1.77482
1.77482
1.77482
1.77482
1.77482
1.77482
0.0954144
0.0990874
0.0633445
0.0407019
0.0232016
0.00901972
-0.00282583
-0.0123039
-0.0188963
-0.023529
-0.0269441
-0.0295715
-0.0315477
-0.0327101
-0.0321004
-0.0236987
0.0236987
0.0321004
0.0327101
0.0315477
0.0295715
0.0269441
0.023529
0.0188963
0.0123039
0.00282583
-0.00901972
-0.0232016
-0.0407019
-0.0633445
-0.0990874
-0.0954144
0.000114063
4.19786e-05
8.02444e-06
0.000149047
0.000483392
0.00029929
-0.00024959
-0.00098774
-0.00157528
-0.00202052
-0.00239589
-0.00273198
-0.0030383
-0.00320874
-0.00307936
-0.00219966
0.00219966
0.00307936
0.00320874
0.0030383
0.00273198
0.00239589
0.00202052
0.00157528
0.00098774
0.00024959
-0.00029929
-0.000483392
-0.000149047
-8.02444e-06
-4.19786e-05
-0.000114063
-2.61007e-17
0
0
-6.72583e-17
0
-3.15989e-17
3.22895e-17
0
0
0
3.00896e-17
1.52947e-17
0
1.80675e-17
0
-1.73497e-17
-1.38798e-17
3.21388e-17
2.71013e-17
0
0
-3.00896e-17
1.53982e-17
0
0
0
0
0
3.36292e-17
3.67928e-17
4.22826e-17
9.78775e-18
1.97365e-17
1.64628e-17
0
-2.72167e-17
0
2.64057e-17
0
2.95973e-17
0
0
-5.13537e-17
0
4.00061e-17
-1.44879e-17
3.31941e-17
-1.52996e-17
-1.52996e-17
-6.63883e-17
-2.89758e-17
0
0
2.56769e-17
2.6726e-17
0
-2.95973e-17
0
0
0
-5.44335e-17
-2.92604e-17
-3.29255e-17
2.22035e-17
0
1.30644e-17
2.35292e-17
0