VARIABLES="X","Y","SUmVec"
ZONE T="Yeethaw"
Nodes=9, Elements=8, ZONETYPE=FEQuadrilateral
DATAPACKING=BLOCK
VARLOCATION=([3]=CELLCENTERED) 
0
0.5
1
0
0.5
1
0
0.5
1
0
0
0
0.5
0.5
0.5
1
1
1
0
0
0
0
0
0
0
0
1 2 4 1 
2 5 4 2 
2 3 5 2 
3 6 5 3 
4 5 7 4 
5 8 7 5 
5 6 8 5 
6 9 8 6 
